       N       E                     dE             d eps       ncg     rms          rms(c)
DAV:   1     0.401979132285E+04    0.40198E+04   -0.19116E+05 51680   0.180E+03
DAV:   2     0.385019807461E+03   -0.36348E+04   -0.34642E+04 51680   0.428E+02
DAV:   3    -0.976562131423E+02   -0.48268E+03   -0.44040E+03 52016   0.179E+02
DAV:   4    -0.124903140069E+03   -0.27247E+02   -0.26557E+02 56880   0.466E+01
DAV:   5    -0.125519261348E+03   -0.61612E+00   -0.61124E+00 56400   0.549E+00
DAV:   6    -0.125536303668E+03   -0.17042E-01   -0.17033E-01 56384   0.855E-01
DAV:   7    -0.125537024920E+03   -0.72125E-03   -0.72120E-03 57520   0.176E-01
DAV:   8    -0.125537066411E+03   -0.41491E-04   -0.41490E-04 67128   0.392E-02
DAV:   9    -0.125537068339E+03   -0.19288E-05   -0.19285E-05 61760   0.695E-03
DAV:  10    -0.125537068411E+03   -0.71945E-07   -0.72106E-07 43104   0.109E-03    0.470E+01
RMM:  11    -0.123495359252E+03    0.20417E+01   -0.45826E+02 51736   0.754E+01    0.399E+01
RMM:  12    -0.173459127181E+03   -0.49964E+02   -0.16255E+02 51685   0.338E+01    0.553E+01
RMM:  13    -0.109034088719E+03    0.64425E+02   -0.29195E+01 51791   0.151E+01    0.236E+01
RMM:  14    -0.907433424080E+02    0.18291E+02   -0.14240E+01 51762   0.110E+01    0.122E+01
RMM:  15    -0.881748045207E+02    0.25685E+01   -0.23086E+00 51782   0.413E+00    0.893E+00
RMM:  16    -0.855836442300E+02    0.25912E+01   -0.34679E+00 51854   0.463E+00    0.331E+00
RMM:  17    -0.853788376699E+02    0.20481E+00   -0.50186E-01 51896   0.205E+00    0.250E+00
RMM:  18    -0.852919900591E+02    0.86848E-01   -0.24079E-01 51929   0.141E+00    0.195E+00
RMM:  19    -0.851857045306E+02    0.10629E+00   -0.77800E-02 51842   0.543E-01    0.894E-01
RMM:  20    -0.851691222925E+02    0.16582E-01   -0.22156E-02 52061   0.413E-01    0.428E-01
RMM:  21    -0.851600195060E+02    0.91028E-02   -0.12346E-02 51951   0.305E-01    0.159E-01
RMM:  22    -0.851542582537E+02    0.57613E-02   -0.30821E-03 51915   0.130E-01    0.149E-01
RMM:  23    -0.851463220342E+02    0.79362E-02   -0.21770E-03 51829   0.105E-01    0.106E-01
RMM:  24    -0.851427953576E+02    0.35267E-02   -0.82517E-04 51965   0.789E-02    0.783E-02
RMM:  25    -0.851398888465E+02    0.29065E-02   -0.53508E-04 51866   0.520E-02    0.552E-02
RMM:  26    -0.851392929192E+02    0.59593E-03   -0.38982E-04 51878   0.391E-02    0.206E-02
RMM:  27    -0.851395449251E+02   -0.25201E-03   -0.93527E-05 51870   0.209E-02    0.196E-02
RMM:  28    -0.851398256460E+02   -0.28072E-03   -0.61430E-05 51786   0.141E-02    0.202E-02
RMM:  29    -0.851399666991E+02   -0.14105E-03   -0.69504E-05 51680   0.117E-02    0.915E-03
RMM:  30    -0.851399765452E+02   -0.98461E-05   -0.40659E-06 51528   0.325E-03    0.696E-03
RMM:  31    -0.851399805933E+02   -0.40482E-05   -0.23140E-06 47090   0.221E-03    0.341E-03
RMM:  32    -0.851399823834E+02   -0.17901E-05   -0.13453E-06 39325   0.149E-03    0.198E-03
RMM:  33    -0.851399825761E+02   -0.19273E-06   -0.21627E-07 31563   0.890E-04    0.140E-03
RMM:  34    -0.851399825687E+02    0.74651E-08   -0.95129E-08 30697   0.662E-04
   1 F= -.85139983E+02 E0= -.85134215E+02  d E =-.851400E+02
       N       E                     dE             d eps       ncg     rms          rms(c)
DAV:   1    -0.851406960294E+02   -0.71345E-03   -0.44121E-02 53536   0.415E-01    0.168E-02
RMM:   2    -0.851407192461E+02   -0.23217E-04   -0.26704E-04 51935   0.522E-02    0.133E-02
RMM:   3    -0.851407235701E+02   -0.43240E-05   -0.16026E-05 52041   0.110E-02    0.137E-02
RMM:   4    -0.851407202617E+02    0.33084E-05   -0.44155E-06 51923   0.466E-03    0.974E-03
RMM:   5    -0.851407178909E+02    0.23708E-05   -0.48690E-06 51891   0.587E-03    0.339E-03
RMM:   6    -0.851407180993E+02   -0.20838E-06   -0.86497E-07 50499   0.281E-03    0.146E-03
RMM:   7    -0.851407179786E+02    0.12069E-06   -0.13946E-07 29524   0.116E-03    0.917E-04
RMM:   8    -0.851407179677E+02    0.10943E-07   -0.63648E-08 28271   0.890E-04
   2 F= -.85140718E+02 E0= -.85134940E+02  d E =-.735399E-03
       N       E                     dE             d eps       ncg     rms          rms(c)
DAV:   1    -0.851424154064E+02   -0.16974E-02   -0.38860E-01 52616   0.123E+00    0.487E-02
RMM:   2    -0.851425714509E+02   -0.15604E-03   -0.19360E-03 51910   0.150E-01    0.381E-02
RMM:   3    -0.851426163991E+02   -0.44948E-04   -0.14479E-04 52156   0.333E-02    0.414E-02
RMM:   4    -0.851425754000E+02    0.40999E-04   -0.39208E-05 52174   0.143E-02    0.284E-02
RMM:   5    -0.851425498099E+02    0.25590E-04   -0.35351E-05 51941   0.161E-02    0.851E-03
RMM:   6    -0.851425502978E+02   -0.48789E-06   -0.69834E-06 51796   0.804E-03    0.554E-03
RMM:   7    -0.851425496332E+02    0.66454E-06   -0.19576E-06 51463   0.444E-03    0.314E-03
RMM:   8    -0.851425492893E+02    0.34391E-06   -0.40993E-07 34772   0.201E-03    0.125E-03
RMM:   9    -0.851425493678E+02   -0.78515E-07   -0.13759E-07 30427   0.922E-04
   3 F= -.85142549E+02 E0= -.85136734E+02  d E =-.183140E-02
       N       E                     dE             d eps       ncg     rms          rms(c)
DAV:   1    -0.851441445347E+02   -0.15952E-02   -0.60350E-01 52000   0.152E+00    0.622E-02
RMM:   2    -0.851443807129E+02   -0.23618E-03   -0.29394E-03 51897   0.181E-01    0.506E-02
RMM:   3    -0.851444617627E+02   -0.81050E-04   -0.26966E-04 53046   0.419E-02    0.545E-02
RMM:   4    -0.851443759522E+02    0.85811E-04   -0.66882E-05 52233   0.190E-02    0.342E-02
RMM:   5    -0.851443427082E+02    0.33244E-04   -0.54047E-05 51965   0.203E-02    0.135E-02
RMM:   6    -0.851443426810E+02    0.27154E-07   -0.15837E-05 51984   0.120E-02    0.968E-03
RMM:   7    -0.851443410641E+02    0.16169E-05   -0.55379E-06 51680   0.718E-03    0.456E-03
RMM:   8    -0.851443403348E+02    0.72931E-06   -0.93990E-07 50661   0.289E-03    0.151E-03
RMM:   9    -0.851443404777E+02   -0.14287E-06   -0.21142E-07 31637   0.108E-03    0.120E-03
RMM:  10    -0.851443405202E+02   -0.42513E-07   -0.94356E-08 29045   0.103E-03
   4 F= -.85144341E+02 E0= -.85138480E+02  d E =-.179115E-02
       N       E                     dE             d eps       ncg     rms          rms(c)
DAV:   1    -0.851449362524E+02   -0.59577E-03   -0.57503E-02 52512   0.469E-01    0.225E-02
RMM:   2    -0.851449689409E+02   -0.32689E-04   -0.38565E-04 51929   0.538E-02    0.204E-02
RMM:   3    -0.851449799645E+02   -0.11024E-04   -0.55547E-05 56379   0.148E-02    0.198E-02
RMM:   4    -0.851449682151E+02    0.11749E-04   -0.87894E-06 52218   0.646E-03    0.121E-02
RMM:   5    -0.851449654290E+02    0.27861E-05   -0.51300E-06 51797   0.582E-03    0.743E-03
RMM:   6    -0.851449655629E+02   -0.13391E-06   -0.34218E-06 51799   0.481E-03    0.439E-03
RMM:   7    -0.851449653723E+02    0.19055E-06   -0.17281E-06 51624   0.390E-03    0.227E-03
RMM:   8    -0.851449652821E+02    0.90222E-07   -0.33739E-07 32778   0.190E-03
   5 F= -.85144965E+02 E0= -.85139094E+02  d E =-.624762E-03
       N       E                     dE             d eps       ncg     rms          rms(c)
DAV:   1    -0.851448405101E+02    0.12486E-03   -0.19980E-03 53040   0.875E-02    0.435E-03
RMM:   2    -0.851448413056E+02   -0.79549E-06   -0.15691E-05 51944   0.103E-02    0.355E-03
RMM:   3    -0.851448412515E+02    0.54060E-07   -0.22675E-06 55191   0.303E-03    0.281E-03
RMM:   4    -0.851448410334E+02    0.21808E-06   -0.24202E-07 31802   0.117E-03    0.181E-03
RMM:   5    -0.851448410956E+02   -0.62137E-07   -0.15305E-07 29660   0.104E-03
   6 F= -.85144841E+02 E0= -.85138972E+02  d E =0.124187E-03
       N       E                     dE             d eps       ncg     rms          rms(c)
DAV:   1    -0.851404289834E+02    0.44121E-02   -0.16233E+00 51680   0.249E+00    0.133E-01
RMM:   2    -0.851415805243E+02   -0.11515E-02   -0.14899E-02 51967   0.297E-01    0.116E-01
RMM:   3    -0.851418906590E+02   -0.31013E-03   -0.20557E-03 56361   0.842E-02    0.112E-01
RMM:   4    -0.851416245796E+02    0.26608E-03   -0.31200E-04 53191   0.350E-02    0.761E-02
RMM:   5    -0.851414524730E+02    0.17211E-03   -0.15674E-04 51938   0.306E-02    0.461E-02
RMM:   6    -0.851414137118E+02    0.38761E-04   -0.12527E-04 51940   0.272E-02    0.244E-02
RMM:   7    -0.851414012609E+02    0.12451E-04   -0.66728E-05 52569   0.231E-02    0.149E-02
RMM:   8    -0.851413964900E+02    0.47710E-05   -0.14318E-05 52079   0.119E-02    0.515E-03
RMM:   9    -0.851413957250E+02    0.76491E-06   -0.14162E-06 50529   0.315E-03    0.334E-03
RMM:  10    -0.851413956148E+02    0.11022E-06   -0.88157E-07 48123   0.235E-03    0.245E-03
RMM:  11    -0.851413955815E+02    0.33360E-07   -0.57609E-07 34426   0.167E-03
   7 F= -.85141396E+02 E0= -.85135562E+02  d E =0.344551E-02
       N       E                     dE             d eps       ncg     rms          rms(c)
DAV:   1    -0.851415192970E+02   -0.12368E-03   -0.28599E-03 53040   0.104E-01    0.690E-03
RMM:   2    -0.851415231627E+02   -0.38656E-05   -0.44102E-05 51947   0.151E-02    0.583E-03
RMM:   3    -0.851415236835E+02   -0.52086E-06   -0.59427E-06 56366   0.420E-03    0.493E-03
RMM:   4    -0.851415238549E+02   -0.17141E-06   -0.80208E-07 44475   0.163E-03    0.406E-03
RMM:   5    -0.851415233487E+02    0.50627E-06   -0.34718E-07 33407   0.159E-03    0.251E-03
RMM:   6    -0.851415234778E+02   -0.12911E-06   -0.32501E-07 31835   0.170E-03    0.141E-03
RMM:   7    -0.851415235427E+02   -0.64894E-07   -0.25077E-07 31290   0.153E-03
   8 F= -.85141524E+02 E0= -.85135690E+02  d E =-.127961E-03
       N       E                     dE             d eps       ncg     rms          rms(c)
DAV:   1    -0.851417597787E+02   -0.23630E-03   -0.11679E-01 51696   0.672E-01    0.378E-02
RMM:   2    -0.851418836055E+02   -0.12383E-03   -0.14048E-03 51883   0.915E-02    0.340E-02
RMM:   3    -0.851418759224E+02    0.76831E-05   -0.11361E-04 51859   0.241E-02    0.233E-02
RMM:   4    -0.851419022492E+02   -0.26327E-04   -0.28536E-05 52524   0.120E-02    0.286E-02
RMM:   5    -0.851418682927E+02    0.33957E-04   -0.14494E-05 51898   0.809E-03    0.855E-03
RMM:   6    -0.851418678496E+02    0.44312E-06   -0.58041E-06 51883   0.657E-03    0.588E-03
RMM:   7    -0.851418672909E+02    0.55871E-06   -0.25548E-06 51508   0.508E-03    0.225E-03
RMM:   8    -0.851418672238E+02    0.67143E-07   -0.33745E-07 32281   0.181E-03
   9 F= -.85141867E+02 E0= -.85136021E+02  d E =-.343681E-03
       N       E                     dE             d eps       ncg     rms          rms(c)
DAV:   1    -0.851429343363E+02   -0.10670E-02   -0.48099E-01 51696   0.136E+00    0.508E-02
RMM:   2    -0.851430732964E+02   -0.13896E-03   -0.17513E-03 51885   0.145E-01    0.534E-02
RMM:   3    -0.851430607229E+02    0.12574E-04   -0.14058E-04 52078   0.340E-02    0.353E-02
RMM:   4    -0.851430650362E+02   -0.43133E-05   -0.42337E-05 52123   0.160E-02    0.354E-02
RMM:   5    -0.851430196267E+02    0.45409E-04   -0.38553E-05 51922   0.152E-02    0.115E-02
RMM:   6    -0.851430187191E+02    0.90764E-06   -0.13247E-05 51849   0.103E-02    0.797E-03
RMM:   7    -0.851430171264E+02    0.15927E-05   -0.23119E-06 51524   0.476E-03    0.275E-03
RMM:   8    -0.851430168132E+02    0.31314E-06   -0.34623E-07 32585   0.158E-03    0.152E-03
RMM:   9    -0.851430168215E+02   -0.82946E-08   -0.20009E-07 29882   0.141E-03
  10 F= -.85143017E+02 E0= -.85137149E+02  d E =-.114960E-02
       N       E                     dE             d eps       ncg     rms          rms(c)
DAV:   1    -0.851439241722E+02   -0.90736E-03   -0.34701E-01 51728   0.115E+00    0.432E-02
RMM:   2    -0.851440204758E+02   -0.96304E-04   -0.11234E-03 51863   0.113E-01    0.485E-02
RMM:   3    -0.851440106111E+02    0.98646E-05   -0.10811E-04 52972   0.267E-02    0.328E-02
RMM:   4    -0.851439900157E+02    0.20595E-04   -0.36699E-05 52010   0.160E-02    0.265E-02
RMM:   5    -0.851439693935E+02    0.20622E-04   -0.25657E-05 51905   0.130E-02    0.963E-03
RMM:   6    -0.851439698138E+02   -0.42035E-06   -0.12021E-05 51891   0.967E-03    0.776E-03
RMM:   7    -0.851439686907E+02    0.11231E-05   -0.27404E-06 51669   0.483E-03    0.230E-03
RMM:   8    -0.851439684470E+02    0.24364E-06   -0.22405E-07 31401   0.120E-03    0.108E-03
RMM:   9    -0.851439684912E+02   -0.44201E-07   -0.10635E-07 28909   0.102E-03
  11 F= -.85143968E+02 E0= -.85138090E+02  d E =-.951670E-03
       N       E                     dE             d eps       ncg     rms          rms(c)
DAV:   1    -0.851457164891E+02   -0.17480E-02   -0.20025E+00 51680   0.277E+00    0.106E-01
RMM:   2    -0.851462974564E+02   -0.58097E-03   -0.67624E-03 51845   0.275E-01    0.124E-01
RMM:   3    -0.851462130911E+02    0.84365E-04   -0.67686E-04 53257   0.650E-02    0.793E-02
RMM:   4    -0.851460639202E+02    0.14917E-03   -0.21376E-04 52044   0.390E-02    0.616E-02
RMM:   5    -0.851459415343E+02    0.12239E-03   -0.15322E-04 51903   0.328E-02    0.260E-02
RMM:   6    -0.851459354574E+02    0.60769E-05   -0.77457E-05 51939   0.244E-02    0.182E-02
RMM:   7    -0.851459304106E+02    0.50468E-05   -0.18765E-05 51745   0.125E-02    0.746E-03
RMM:   8    -0.851459282776E+02    0.21331E-05   -0.21954E-06 51473   0.418E-03    0.255E-03
RMM:   9    -0.851459284594E+02   -0.18188E-06   -0.60678E-07 44280   0.212E-03    0.207E-03
RMM:  10    -0.851459285647E+02   -0.10526E-06   -0.26364E-07 31344   0.160E-03    0.678E-04
RMM:  11    -0.851459286039E+02   -0.39247E-07   -0.45875E-08 28780   0.690E-04
  12 F= -.85145929E+02 E0= -.85140034E+02  d E =-.196011E-02
       N       E                     dE             d eps       ncg     rms          rms(c)
DAV:   1    -0.851471427857E+02   -0.12142E-02   -0.15017E+00 51680   0.240E+00    0.891E-02
RMM:   2    -0.851475461710E+02   -0.40339E-03   -0.46807E-03 51844   0.233E-01    0.104E-01
RMM:   3    -0.851474778303E+02    0.68341E-04   -0.45417E-04 53358   0.539E-02    0.669E-02
RMM:   4    -0.851473763823E+02    0.10145E-03   -0.15954E-04 51992   0.341E-02    0.533E-02
RMM:   5    -0.851472839726E+02    0.92410E-04   -0.11404E-04 51859   0.281E-02    0.202E-02
RMM:   6    -0.851472812000E+02    0.27726E-05   -0.51113E-05 51889   0.198E-02    0.153E-02
RMM:   7    -0.851472775178E+02    0.36822E-05   -0.11271E-05 51718   0.939E-03    0.590E-03
RMM:   8    -0.851472760544E+02    0.14634E-05   -0.12416E-06 51044   0.284E-03    0.225E-03
RMM:   9    -0.851472761307E+02   -0.76303E-07   -0.43101E-07 36053   0.192E-03
  13 F= -.85147276E+02 E0= -.85141372E+02  d E =-.134753E-02
       N       E                     dE             d eps       ncg     rms          rms(c)
DAV:   1    -0.851481103617E+02   -0.83431E-03   -0.98912E-01 51696   0.196E+00    0.717E-02
RMM:   2    -0.851483668517E+02   -0.25649E-03   -0.29581E-03 51815   0.188E-01    0.847E-02
RMM:   3    -0.851483139489E+02    0.52903E-04   -0.26003E-04 53026   0.415E-02    0.534E-02
RMM:   4    -0.851482468584E+02    0.67090E-04   -0.10499E-04 52016   0.284E-02    0.424E-02
RMM:   5    -0.851481891684E+02    0.57690E-04   -0.81527E-05 51866   0.242E-02    0.163E-02
RMM:   6    -0.851481862634E+02    0.29050E-05   -0.30644E-05 51869   0.155E-02    0.109E-02
RMM:   7    -0.851481844984E+02    0.17650E-05   -0.59543E-06 51726   0.674E-03    0.515E-03
RMM:   8    -0.851481834131E+02    0.10853E-05   -0.94506E-07 50215   0.268E-03    0.181E-03
RMM:   9    -0.851481835134E+02   -0.10034E-06   -0.25636E-07 31244   0.145E-03    0.137E-03
RMM:  10    -0.851481836214E+02   -0.10795E-06   -0.14888E-07 29588   0.128E-03    0.457E-04
RMM:  11    -0.851481836504E+02   -0.29060E-07   -0.24731E-08 28379   0.512E-04
  14 F= -.85148184E+02 E0= -.85142281E+02  d E =-.907520E-03
       N       E                     dE             d eps       ncg     rms          rms(c)
DAV:   1    -0.851493312241E+02   -0.11476E-02   -0.57966E+00 51680   0.473E+00    0.173E-01
RMM:   2    -0.851508151063E+02   -0.14839E-02   -0.17034E-02 51820   0.459E-01    0.214E-01
RMM:   3    -0.851503742592E+02    0.44085E-03   -0.11955E-03 51980   0.101E-01    0.128E-01
RMM:   4    -0.851499598864E+02    0.41437E-03   -0.52977E-04 51983   0.651E-02    0.101E-01
RMM:   5    -0.851496415560E+02    0.31833E-03   -0.54674E-04 51831   0.634E-02    0.429E-02
RMM:   6    -0.851496026663E+02    0.38890E-04   -0.17733E-04 51811   0.379E-02    0.262E-02
RMM:   7    -0.851495906406E+02    0.12026E-04   -0.20953E-05 51873   0.129E-02    0.132E-02
RMM:   8    -0.851495846445E+02    0.59961E-05   -0.76652E-06 51763   0.835E-03    0.425E-03
RMM:   9    -0.851495847618E+02   -0.11732E-06   -0.17919E-06 51616   0.379E-03    0.322E-03
RMM:  10    -0.851495850000E+02   -0.23823E-06   -0.59492E-07 47311   0.230E-03    0.920E-04
RMM:  11    -0.851495850448E+02   -0.44754E-07   -0.55357E-08 28870   0.764E-04
  15 F= -.85149585E+02 E0= -.85143679E+02  d E =-.140139E-02
       N       E                     dE             d eps       ncg     rms          rms(c)
DAV:   1    -0.851497277302E+02   -0.14273E-03   -0.16658E-01 52736   0.806E-01    0.283E-02
RMM:   2    -0.851497692355E+02   -0.41505E-04   -0.45821E-04 51803   0.768E-02    0.342E-02
RMM:   3    -0.851497576821E+02    0.11553E-04   -0.28688E-05 51933   0.155E-02    0.210E-02
RMM:   4    -0.851497489191E+02    0.87629E-05   -0.15840E-05 51900   0.115E-02    0.172E-02
RMM:   5    -0.851497409833E+02    0.79358E-05   -0.16521E-05 51854   0.106E-02    0.630E-03
RMM:   6    -0.851497404607E+02    0.52261E-06   -0.37126E-06 51708   0.549E-03    0.396E-03
RMM:   7    -0.851497400354E+02    0.42533E-06   -0.42362E-07 34527   0.186E-03    0.198E-03
RMM:   8    -0.851497397729E+02    0.26253E-06   -0.17311E-07 28657   0.122E-03    0.614E-04
RMM:   9    -0.851497398260E+02   -0.53136E-07   -0.49752E-08 28432   0.635E-04
  16 F= -.85149740E+02 E0= -.85143841E+02  d E =-.154781E-03
       N       E                     dE             d eps       ncg     rms          rms(c)
DAV:   1    -0.851498711188E+02   -0.13135E-03   -0.13242E-01 51792   0.722E-01    0.271E-02
RMM:   2    -0.851499115138E+02   -0.40395E-04   -0.48274E-04 51873   0.746E-02    0.282E-02
RMM:   3    -0.851499132564E+02   -0.17427E-05   -0.56542E-05 55504   0.169E-02    0.209E-02
RMM:   4    -0.851499036512E+02    0.96052E-05   -0.15219E-05 51911   0.979E-03    0.172E-02
RMM:   5    -0.851498947634E+02    0.88878E-05   -0.10439E-05 51836   0.804E-03    0.557E-03
RMM:   6    -0.851498952661E+02   -0.50277E-06   -0.43400E-06 51858   0.552E-03    0.489E-03
RMM:   7    -0.851498948342E+02    0.43197E-06   -0.13339E-06 51084   0.330E-03    0.185E-03
RMM:   8    -0.851498947292E+02    0.10494E-06   -0.13325E-07 30755   0.832E-04    0.647E-04
RMM:   9    -0.851498947637E+02   -0.34459E-07   -0.47923E-08 28406   0.664E-04
  17 F= -.85149895E+02 E0= -.85144007E+02  d E =-.154938E-03
       N       E                     dE             d eps       ncg     rms          rms(c)
DAV:   1    -0.851499834395E+02   -0.88710E-04   -0.10727E-01 51856   0.646E-01    0.241E-02
RMM:   2    -0.851500160018E+02   -0.32562E-04   -0.36341E-04 51846   0.631E-02    0.265E-02
RMM:   3    -0.851500148387E+02    0.11631E-05   -0.40494E-05 54807   0.148E-02    0.187E-02
RMM:   4    -0.851500067775E+02    0.80612E-05   -0.11677E-05 51856   0.897E-03    0.144E-02
RMM:   5    -0.851500014140E+02    0.53636E-05   -0.78590E-06 51889   0.726E-03    0.548E-03
RMM:   6    -0.851500020618E+02   -0.64786E-06   -0.38937E-06 51738   0.532E-03    0.464E-03
RMM:   7    -0.851500017332E+02    0.32860E-06   -0.11474E-06 50935   0.300E-03    0.162E-03
RMM:   8    -0.851500016332E+02    0.10003E-06   -0.96885E-08 29984   0.704E-04    0.596E-04
RMM:   9    -0.851500016714E+02   -0.38177E-07   -0.37828E-08 28369   0.588E-04
  18 F= -.85150002E+02 E0= -.85144117E+02  d E =-.106908E-03
