unknown system                          
           1
     5.412900   -5.412900   -0.000000
     0.000000    5.412900   -5.412900
    10.584969   10.584969   10.584969
   Cu   Rh   C    H 
  44   1   1   4
Direct configuration=     1
   0.22222222  0.11111111  0.00000000
   0.22222222  0.44444444  0.00000000
   0.22222222  0.77777778  0.00000000
   0.55555556  0.11111111  0.00000000
   0.55555556  0.44444444  0.00000000
   0.55555556  0.77777778  0.00000000
   0.88888889  0.11111111  0.00000000
   0.88888889  0.44444444  0.00000000
   0.88888889  0.77777778  0.00000000
   0.00000000  0.00000000  0.11363913
   0.00000000  0.33333333  0.11363913
   0.00000000  0.66666667  0.11363913
   0.33333333  0.00000000  0.11363913
   0.33333333  0.33333333  0.11363913
   0.33333333  0.66666667  0.11363913
   0.66666667  0.00000000  0.11363913
   0.66666667  0.33333333  0.11363913
   0.66666667  0.66666667  0.11363913
   0.99288510  0.99555098  0.45300430
   0.22214418  0.11365890  0.34024712
   0.11046618  0.22274663  0.22667147
   0.33180431  0.99722013  0.45368793
   0.55434896  0.11275853  0.34030686
   0.44406400  0.22250112  0.22673094
   0.66507117  0.00063763  0.45280864
   0.88927056  0.11256035  0.34040655
   0.77807721  0.22315455  0.22735464
   0.99355008  0.33331938  0.45345513
   0.22176787  0.44411478  0.34023300
   0.11098730  0.55643348  0.22736893
   0.55468755  0.44532850  0.33930808
   0.44406072  0.55656343  0.22679135
   0.66854531  0.33482847  0.45398838
   0.88773614  0.44523841  0.34039458
   0.77774066  0.55641611  0.22698946
   0.00017779  0.66812149  0.45321807
   0.22278721  0.77931328  0.34016808
   0.11099960  0.88966975  0.22741228
   0.33153379  0.67102562  0.45365239
   0.55438071  0.77725758  0.34042569
   0.44408864  0.88955290  0.22723450
   0.66815674  0.66915671  0.45466141
   0.88747621  0.77807245  0.34044664
   0.77798028  0.88991981  0.22738079
   0.33137717  0.33398667  0.46232169
   0.31257959  0.32120941  0.58296547
   0.32144526  0.45795713  0.60593514
   0.49946257  0.43152655  0.52679304
   0.41063109  0.28061412  0.61370535
   0.15671658  0.19415805  0.58527457
Direct configuration=     2
   0.22222222  0.11111111  0.00000000
   0.22222222  0.44444444  0.00000000
   0.22222222  0.77777778  0.00000000
   0.55555556  0.11111111  0.00000000
   0.55555556  0.44444444  0.00000000
   0.55555556  0.77777778  0.00000000
   0.88888889  0.11111111  0.00000000
   0.88888889  0.44444444  0.00000000
   0.88888889  0.77777778  0.00000000
   0.00000000  0.00000000  0.11363913
   0.00000000  0.33333333  0.11363913
   0.00000000  0.66666667  0.11363913
   0.33333333  0.00000000  0.11363913
   0.33333333  0.33333333  0.11363913
   0.33333333  0.66666667  0.11363913
   0.66666667  0.00000000  0.11363913
   0.66666667  0.33333333  0.11363913
   0.66666667  0.66666667  0.11363913
   0.99293848  0.99557612  0.45296118
   0.22215830  0.11370474  0.34028050
   0.11049170  0.22275428  0.22665112
   0.33178913  0.99726622  0.45364762
   0.55436494  0.11275133  0.34031906
   0.44407232  0.22249946  0.22670542
   0.66505642  0.00062715  0.45277865
   0.88923927  0.11253911  0.34041417
   0.77804653  0.22313569  0.22734077
   0.99359953  0.33334803  0.45341213
   0.22178273  0.44407787  0.34026481
   0.11097524  0.55639857  0.22735512
   0.55465544  0.44530860  0.33932616
   0.44406793  0.55656790  0.22676478
   0.66853898  0.33478053  0.45394713
   0.88774726  0.44526605  0.34040023
   0.77774392  0.55641373  0.22697436
   0.00017968  0.66812055  0.45317565
   0.22273836  0.77928563  0.34017799
   0.11098381  0.88968135  0.22739835
   0.33151784  0.67096811  0.45361082
   0.55438809  0.77727038  0.34043694
   0.44413442  0.88957266  0.22722393
   0.66815527  0.66919965  0.45461973
   0.88748899  0.77805364  0.34045183
   0.77795351  0.88990082  0.22736672
   0.33140607  0.33399286  0.46232348
   0.31247143  0.32114253  0.58298103
   0.32145093  0.45794158  0.60593188
   0.49952074  0.43155579  0.52676413
   0.41062064  0.28062193  0.61370039
   0.15673470  0.19418705  0.58529368
Direct configuration=     3
   0.22222222  0.11111111  0.00000000
   0.22222222  0.44444444  0.00000000
   0.22222222  0.77777778  0.00000000
   0.55555556  0.11111111  0.00000000
   0.55555556  0.44444444  0.00000000
   0.55555556  0.77777778  0.00000000
   0.88888889  0.11111111  0.00000000
   0.88888889  0.44444444  0.00000000
   0.88888889  0.77777778  0.00000000
   0.00000000  0.00000000  0.11363913
   0.00000000  0.33333333  0.11363913
   0.00000000  0.66666667  0.11363913
   0.33333333  0.00000000  0.11363913
   0.33333333  0.33333333  0.11363913
   0.33333333  0.66666667  0.11363913
   0.66666667  0.00000000  0.11363913
   0.66666667  0.33333333  0.11363913
   0.66666667  0.66666667  0.11363913
   0.99310162  0.99565510  0.45282700
   0.22220205  0.11384217  0.34037283
   0.11056765  0.22277551  0.22659272
   0.33174325  0.99739773  0.45352292
   0.55440874  0.11272700  0.34034836
   0.44409550  0.22249209  0.22663169
   0.66501130  0.00059516  0.45268557
   0.88914295  0.11247322  0.34042943
   0.77795645  0.22307937  0.22730038
   0.99375009  0.33343138  0.45327886
   0.22182801  0.44396583  0.34035289
   0.11094281  0.55629272  0.22731617
   0.55456023  0.44525027  0.33937395
   0.44408800  0.55657916  0.22668797
   0.66852350  0.33463733  0.45381901
   0.88777895  0.44534625  0.34040942
   0.77775173  0.55640438  0.22693054
   0.00018319  0.66811645  0.45304442
   0.22259462  0.77920427  0.34019928
   0.11094024  0.88971785  0.22735926
   0.33147036  0.67080096  0.45348238
   0.55440634  0.77730493  0.34046339
   0.44426502  0.88962687  0.22719432
   0.66815294  0.66932888  0.45449062
   0.88752526  0.77799766  0.34045904
   0.77787519  0.88984332  0.22732598
   0.33149660  0.33401465  0.46234365
   0.31227661  0.32102257  0.58302130
   0.32145907  0.45790515  0.60592357
   0.49973106  0.43166340  0.52666708
   0.41057253  0.28064238  0.61368085
   0.15665073  0.19416892  0.58536088
Direct configuration=     4
   0.22222222  0.11111111  0.00000000
   0.22222222  0.44444444  0.00000000
   0.22222222  0.77777778  0.00000000
   0.55555556  0.11111111  0.00000000
   0.55555556  0.44444444  0.00000000
   0.55555556  0.77777778  0.00000000
   0.88888889  0.11111111  0.00000000
   0.88888889  0.44444444  0.00000000
   0.88888889  0.77777778  0.00000000
   0.00000000  0.00000000  0.11363913
   0.00000000  0.33333333  0.11363913
   0.00000000  0.66666667  0.11363913
   0.33333333  0.00000000  0.11363913
   0.33333333  0.33333333  0.11363913
   0.33333333  0.66666667  0.11363913
   0.66666667  0.00000000  0.11363913
   0.66666667  0.33333333  0.11363913
   0.66666667  0.66666667  0.11363913
   0.99330553  0.99576095  0.45265120
   0.22226124  0.11401364  0.34046900
   0.11065939  0.22279860  0.22652672
   0.33168669  0.99754521  0.45336021
   0.55445289  0.11269124  0.34036683
   0.44412142  0.22247958  0.22654737
   0.66495474  0.00055436  0.45256389
   0.88901951  0.11238831  0.34042894
   0.77785192  0.22301064  0.22725321
   0.99394008  0.33352938  0.45310380
   0.22188870  0.44382459  0.34044525
   0.11091041  0.55616013  0.22727348
   0.55444609  0.44517952  0.33941866
   0.44411013  0.55658832  0.22659869
   0.66851226  0.33446242  0.45365046
   0.88781354  0.44543523  0.34040131
   0.77775939  0.55638923  0.22687933
   0.00018276  0.66810745  0.45287179
   0.22242356  0.77910596  0.34020500
   0.11089360  0.88976674  0.22731603
   0.33141089  0.67060405  0.45331416
   0.55441862  0.77733831  0.34047818
   0.44441085  0.88968402  0.22716223
   0.66815575  0.66948860  0.45432061
   0.88756398  0.77792751  0.34044897
   0.77778312  0.88977136  0.22727759
   0.33161332  0.33404601  0.46239651
   0.31206484  0.32088935  0.58304763
   0.32145991  0.45789337  0.60591764
   0.50008904  0.43185143  0.52652630
   0.41052007  0.28065198  0.61365807
   0.15642811  0.19406575  0.58546355
Direct configuration=     5
   0.22222222  0.11111111  0.00000000
   0.22222222  0.44444444  0.00000000
   0.22222222  0.77777778  0.00000000
   0.55555556  0.11111111  0.00000000
   0.55555556  0.44444444  0.00000000
   0.55555556  0.77777778  0.00000000
   0.88888889  0.11111111  0.00000000
   0.88888889  0.44444444  0.00000000
   0.88888889  0.77777778  0.00000000
   0.00000000  0.00000000  0.11363913
   0.00000000  0.33333333  0.11363913
   0.00000000  0.66666667  0.11363913
   0.33333333  0.00000000  0.11363913
   0.33333333  0.33333333  0.11363913
   0.33333333  0.66666667  0.11363913
   0.66666667  0.00000000  0.11363913
   0.66666667  0.33333333  0.11363913
   0.66666667  0.66666667  0.11363913
   0.99336005  0.99579579  0.45259460
   0.22228172  0.11405910  0.34047264
   0.11067910  0.22279999  0.22651688
   0.33167237  0.99756546  0.45330855
   0.55445186  0.11267560  0.34035035
   0.44412455  0.22247231  0.22653329
   0.66494069  0.00054293  0.45252465
   0.88898364  0.11236269  0.34040655
   0.77783358  0.22299432  0.22724330
   0.99399117  0.33354560  0.45304740
   0.22190804  0.44378506  0.34044902
   0.11091042  0.55612399  0.22726761
   0.55442197  0.44516255  0.33941279
   0.44411241  0.55658477  0.22658231
   0.66851685  0.33442101  0.45359679
   0.88781733  0.44544484  0.34037670
   0.77775907  0.55638089  0.22686897
   0.00017956  0.66810312  0.45281459
   0.22238836  0.77908417  0.34018229
   0.11089007  0.88978179  0.22731001
   0.33139682  0.67056674  0.45326022
   0.55440997  0.77733563  0.34046080
   0.44442883  0.88968716  0.22715788
   0.66816354  0.66952911  0.45426581
   0.88756600  0.77791107  0.34042407
   0.77776587  0.88975236  0.22726663
   0.33164726  0.33405785  0.46243910
   0.31196533  0.32082667  0.58304035
   0.32144984  0.45790295  0.60591567
   0.50031398  0.43197492  0.52646445
   0.41050598  0.28064092  0.61364925
   0.15630438  0.19400360  0.58551236
Direct configuration=     6
   0.22222222  0.11111111  0.00000000
   0.22222222  0.44444444  0.00000000
   0.22222222  0.77777778  0.00000000
   0.55555556  0.11111111  0.00000000
   0.55555556  0.44444444  0.00000000
   0.55555556  0.77777778  0.00000000
   0.88888889  0.11111111  0.00000000
   0.88888889  0.44444444  0.00000000
   0.88888889  0.77777778  0.00000000
   0.00000000  0.00000000  0.11363913
   0.00000000  0.33333333  0.11363913
   0.00000000  0.66666667  0.11363913
   0.33333333  0.00000000  0.11363913
   0.33333333  0.33333333  0.11363913
   0.33333333  0.66666667  0.11363913
   0.66666667  0.00000000  0.11363913
   0.66666667  0.33333333  0.11363913
   0.66666667  0.66666667  0.11363913
   0.99335125  0.99578958  0.45260467
   0.22227801  0.11405175  0.34047393
   0.11067639  0.22280024  0.22651786
   0.33167456  0.99756380  0.45331768
   0.55445315  0.11267866  0.34035492
   0.44412438  0.22247383  0.22653491
   0.66494281  0.00054481  0.45253169
   0.88898966  0.11236710  0.34041211
   0.77783571  0.22299680  0.22724479
   0.99398288  0.33354397  0.45305745
   0.22190467  0.44379163  0.34045021
   0.11090968  0.55612987  0.22726819
   0.55442533  0.44516518  0.33941529
   0.44411234  0.55658592  0.22658437
   0.66851554  0.33442719  0.45360628
   0.88781723  0.44544461  0.34038265
   0.77775929  0.55638261  0.22687047
   0.00018035  0.66810400  0.45282495
   0.22239311  0.77908732  0.34018808
   0.11088986  0.88977923  0.22731061
   0.33139890  0.67057143  0.45326980
   0.55441242  0.77733711  0.34046551
   0.44442775  0.88968774  0.22715835
   0.66816176  0.66952293  0.45427552
   0.88756642  0.77791350  0.34043006
   0.77776801  0.88975541  0.22726834
   0.33164143  0.33405561  0.46242977
   0.31198765  0.32084063  0.58304179
   0.32145257  0.45790211  0.60591643
   0.50026413  0.43194727  0.52647702
   0.41050956  0.28064350  0.61365147
   0.15632814  0.19401499  0.58550241
Direct configuration=     7
   0.22222222  0.11111111  0.00000000
   0.22222222  0.44444444  0.00000000
   0.22222222  0.77777778  0.00000000
   0.55555556  0.11111111  0.00000000
   0.55555556  0.44444444  0.00000000
   0.55555556  0.77777778  0.00000000
   0.88888889  0.11111111  0.00000000
   0.88888889  0.44444444  0.00000000
   0.88888889  0.77777778  0.00000000
   0.00000000  0.00000000  0.11363913
   0.00000000  0.33333333  0.11363913
   0.00000000  0.66666667  0.11363913
   0.33333333  0.00000000  0.11363913
   0.33333333  0.33333333  0.11363913
   0.33333333  0.66666667  0.11363913
   0.66666667  0.00000000  0.11363913
   0.66666667  0.33333333  0.11363913
   0.66666667  0.66666667  0.11363913
   0.99312843  0.99562052  0.45288181
   0.22217820  0.11387105  0.34051961
   0.11061723  0.22281383  0.22653948
   0.33172309  0.99752233  0.45356764
   0.55449220  0.11276214  0.34050240
   0.44411866  0.22250876  0.22657205
   0.66499236  0.00058699  0.45274094
   0.88914841  0.11248341  0.34057382
   0.77788214  0.22306038  0.22729335
   0.99376936  0.33354395  0.45334106
   0.22181916  0.44395687  0.34049508
   0.11088898  0.55627255  0.22729002
   0.55450369  0.44524319  0.33949484
   0.44412589  0.55664002  0.22663759
   0.66849298  0.33458205  0.45386511
   0.88781593  0.44545805  0.34055261
   0.77776188  0.55642732  0.22691569
   0.00017959  0.66811139  0.45312397
   0.22250056  0.77915755  0.34035648
   0.11088191  0.88972892  0.22733267
   0.33143195  0.67067302  0.45352982
   0.55448124  0.77737892  0.34060719
   0.44442007  0.88970991  0.22718168
   0.66811595  0.66940718  0.45454653
   0.88757560  0.77799179  0.34060598
   0.77782525  0.88984927  0.22732801
   0.33148003  0.33400084  0.46215074
   0.31277700  0.32133421  0.58301144
   0.32156376  0.45798757  0.60596558
   0.49858877  0.43100660  0.52686991
   0.41071528  0.28070051  0.61375898
   0.15699492  0.19431242  0.58519929
Direct configuration=     8
   0.22222222  0.11111111  0.00000000
   0.22222222  0.44444444  0.00000000
   0.22222222  0.77777778  0.00000000
   0.55555556  0.11111111  0.00000000
   0.55555556  0.44444444  0.00000000
   0.55555556  0.77777778  0.00000000
   0.88888889  0.11111111  0.00000000
   0.88888889  0.44444444  0.00000000
   0.88888889  0.77777778  0.00000000
   0.00000000  0.00000000  0.11363913
   0.00000000  0.33333333  0.11363913
   0.00000000  0.66666667  0.11363913
   0.33333333  0.00000000  0.11363913
   0.33333333  0.33333333  0.11363913
   0.33333333  0.66666667  0.11363913
   0.66666667  0.00000000  0.11363913
   0.66666667  0.33333333  0.11363913
   0.66666667  0.66666667  0.11363913
   0.99313120  0.99562518  0.45287358
   0.22218101  0.11387301  0.34051352
   0.11061579  0.22281156  0.22654064
   0.33172346  0.99751923  0.45356057
   0.55448839  0.11275919  0.34049289
   0.44411800  0.22250783  0.22657316
   0.66499264  0.00058690  0.45273315
   0.88914532  0.11248056  0.34056494
   0.77788424  0.22305970  0.22729153
   0.99377224  0.33353755  0.45333225
   0.22182103  0.44395418  0.34048902
   0.11089108  0.55627110  0.22728954
   0.55450472  0.44524153  0.33948869
   0.44412357  0.55663562  0.22663796
   0.66849353  0.33458192  0.45385814
   0.88781464  0.44545263  0.34054379
   0.77776173  0.55642560  0.22691446
   0.00018143  0.66811225  0.45311354
   0.22250258  0.77915828  0.34034707
   0.11088399  0.88972827  0.22733222
   0.33143405  0.67067614  0.45352258
   0.55447726  0.77737519  0.34059845
   0.44441407  0.88970624  0.22718032
   0.66811770  0.66940337  0.45453868
   0.88757361  0.77798999  0.34059661
   0.77782568  0.88984655  0.22732545
   0.33148611  0.33400306  0.46216644
   0.31273421  0.32130753  0.58301412
   0.32155427  0.45797987  0.60596179
   0.49869249  0.43106636  0.52684772
   0.41070072  0.28069610  0.61375124
   0.15695510  0.19429278  0.58521483
Direct configuration=     9
   0.22222222  0.11111111  0.00000000
   0.22222222  0.44444444  0.00000000
   0.22222222  0.77777778  0.00000000
   0.55555556  0.11111111  0.00000000
   0.55555556  0.44444444  0.00000000
   0.55555556  0.77777778  0.00000000
   0.88888889  0.11111111  0.00000000
   0.88888889  0.44444444  0.00000000
   0.88888889  0.77777778  0.00000000
   0.00000000  0.00000000  0.11363913
   0.00000000  0.33333333  0.11363913
   0.00000000  0.66666667  0.11363913
   0.33333333  0.00000000  0.11363913
   0.33333333  0.33333333  0.11363913
   0.33333333  0.66666667  0.11363913
   0.66666667  0.00000000  0.11363913
   0.66666667  0.33333333  0.11363913
   0.66666667  0.66666667  0.11363913
   0.99323688  0.99566774  0.45280892
   0.22221322  0.11394850  0.34050075
   0.11066647  0.22283226  0.22654347
   0.33168636  0.99752787  0.45349499
   0.55448193  0.11273256  0.34048348
   0.44412281  0.22248867  0.22656971
   0.66495349  0.00056045  0.45272026
   0.88907595  0.11244326  0.34053805
   0.77785233  0.22304243  0.22731286
   0.99386620  0.33362096  0.45326967
   0.22184738  0.44389740  0.34048306
   0.11089239  0.55619821  0.22731390
   0.55446307  0.44522074  0.33947655
   0.44413912  0.55665383  0.22662967
   0.66853090  0.33449140  0.45377450
   0.88782018  0.44549496  0.34050582
   0.77775323  0.55641510  0.22692962
   0.00013026  0.66809164  0.45307075
   0.22243177  0.77912057  0.34031366
   0.11088848  0.88978192  0.22735642
   0.33138201  0.67061917  0.45344975
   0.55445343  0.77738861  0.34058926
   0.44444081  0.88971433  0.22721842
   0.66815769  0.66955831  0.45446917
   0.88757836  0.77796929  0.34056479
   0.77780771  0.88982955  0.22734688
   0.33146776  0.33399348  0.46212889
   0.31299772  0.32147142  0.58300311
   0.32164798  0.45801887  0.60598667
   0.49806685  0.43067488  0.52701350
   0.41076834  0.28074868  0.61380438
   0.15720575  0.19445692  0.58516352
Direct configuration=    10
   0.22222222  0.11111111  0.00000000
   0.22222222  0.44444444  0.00000000
   0.22222222  0.77777778  0.00000000
   0.55555556  0.11111111  0.00000000
   0.55555556  0.44444444  0.00000000
   0.55555556  0.77777778  0.00000000
   0.88888889  0.11111111  0.00000000
   0.88888889  0.44444444  0.00000000
   0.88888889  0.77777778  0.00000000
   0.00000000  0.00000000  0.11363913
   0.00000000  0.33333333  0.11363913
   0.00000000  0.66666667  0.11363913
   0.33333333  0.00000000  0.11363913
   0.33333333  0.33333333  0.11363913
   0.33333333  0.66666667  0.11363913
   0.66666667  0.00000000  0.11363913
   0.66666667  0.33333333  0.11363913
   0.66666667  0.66666667  0.11363913
   0.99341406  0.99576563  0.45264939
   0.22227838  0.11407941  0.34046227
   0.11073341  0.22284694  0.22654072
   0.33163228  0.99753857  0.45334311
   0.55445574  0.11267519  0.34041891
   0.44413044  0.22245804  0.22655609
   0.66490144  0.00052248  0.45263906
   0.88895288  0.11236824  0.34045209
   0.77780910  0.22300488  0.22731815
   0.99402620  0.33370113  0.45310996
   0.22190005  0.44378809  0.34045224
   0.11090312  0.55608014  0.22733140
   0.55439906  0.44517686  0.33943287
   0.44415093  0.55665355  0.22660579
   0.66857583  0.33435407  0.45359846
   0.88782437  0.44552715  0.34040427
   0.77774353  0.55638972  0.22692985
   0.00007085  0.66806618  0.45292747
   0.22232555  0.77906101  0.34021707
   0.11089955  0.88985161  0.22737402
   0.33131794  0.67053715  0.45328683
   0.55440050  0.77738532  0.34052748
   0.44445910  0.88970954  0.22724998
   0.66821273  0.66974790  0.45430456
   0.88757590  0.77792558  0.34046793
   0.77777482  0.88978335  0.22734848
   0.33151018  0.33400590  0.46215755
   0.31308774  0.32153146  0.58300740
   0.32172576  0.45804635  0.60600151
   0.49785247  0.43050558  0.52709994
   0.41078599  0.28078927  0.61383608
   0.15728024  0.19454563  0.58519464
Direct configuration=    11
   0.22222222  0.11111111  0.00000000
   0.22222222  0.44444444  0.00000000
   0.22222222  0.77777778  0.00000000
   0.55555556  0.11111111  0.00000000
   0.55555556  0.44444444  0.00000000
   0.55555556  0.77777778  0.00000000
   0.88888889  0.11111111  0.00000000
   0.88888889  0.44444444  0.00000000
   0.88888889  0.77777778  0.00000000
   0.00000000  0.00000000  0.11363913
   0.00000000  0.33333333  0.11363913
   0.00000000  0.66666667  0.11363913
   0.33333333  0.00000000  0.11363913
   0.33333333  0.33333333  0.11363913
   0.33333333  0.66666667  0.11363913
   0.66666667  0.00000000  0.11363913
   0.66666667  0.33333333  0.11363913
   0.66666667  0.66666667  0.11363913
   0.99350539  0.99583621  0.45251296
   0.22231675  0.11414817  0.34041924
   0.11074891  0.22283458  0.22652246
   0.33160498  0.99752848  0.45321742
   0.55442173  0.11262785  0.34034651
   0.44414089  0.22244496  0.22653262
   0.66489496  0.00051174  0.45254993
   0.88887969  0.11231839  0.34037486
   0.77779314  0.22297306  0.22728716
   0.99410604  0.33370317  0.45297233
   0.22192927  0.44371865  0.34041084
   0.11091736  0.55602147  0.22731094
   0.55436909  0.44515271  0.33939302
   0.44415622  0.55663594  0.22657749
   0.66857948  0.33429679  0.45345748
   0.88782283  0.44550763  0.34031614
   0.77774333  0.55637003  0.22689940
   0.00003503  0.66805207  0.45278890
   0.22226575  0.77902592  0.34013170
   0.11090854  0.88986706  0.22735413
   0.33129062  0.67051074  0.45315555
   0.55435378  0.77736108  0.34045633
   0.44444021  0.88968370  0.22723189
   0.66822084  0.66979100  0.45416406
   0.88756074  0.77790584  0.34037941
   0.77775669  0.88975164  0.22731484
   0.33162789  0.33405457  0.46214593
   0.31309498  0.32154658  0.58303508
   0.32178401  0.45810677  0.60601429
   0.49785529  0.43046721  0.52715641
   0.41080325  0.28079602  0.61386367
   0.15726485  0.19457274  0.58523599
Direct configuration=    12
   0.22222222  0.11111111  0.00000000
   0.22222222  0.44444444  0.00000000
   0.22222222  0.77777778  0.00000000
   0.55555556  0.11111111  0.00000000
   0.55555556  0.44444444  0.00000000
   0.55555556  0.77777778  0.00000000
   0.88888889  0.11111111  0.00000000
   0.88888889  0.44444444  0.00000000
   0.88888889  0.77777778  0.00000000
   0.00000000  0.00000000  0.11363913
   0.00000000  0.33333333  0.11363913
   0.00000000  0.66666667  0.11363913
   0.33333333  0.00000000  0.11363913
   0.33333333  0.33333333  0.11363913
   0.33333333  0.66666667  0.11363913
   0.66666667  0.00000000  0.11363913
   0.66666667  0.33333333  0.11363913
   0.66666667  0.66666667  0.11363913
   0.99366842  0.99599600  0.45219922
   0.22239253  0.11426404  0.34029682
   0.11075105  0.22278370  0.22647404
   0.33156356  0.99748393  0.45293160
   0.55433245  0.11251830  0.34014829
   0.44416046  0.22242220  0.22647598
   0.66490590  0.00050083  0.45232023
   0.88873516  0.11221164  0.34017417
   0.77777801  0.22290180  0.22719082
   0.99424851  0.33364645  0.45265262
   0.22198645  0.44358138  0.34028854
   0.11095660  0.55592058  0.22724046
   0.55433088  0.44510637  0.33927870
   0.44415827  0.55657153  0.22651220
   0.66857890  0.33421488  0.45314517
   0.88780932  0.44541693  0.34009510
   0.77774584  0.55632154  0.22681025
  -0.00002869  0.66802216  0.45244967
   0.22216479  0.77896115  0.33991579
   0.11093356  0.88987076  0.22728527
   0.33125832  0.67049392  0.45286096
   0.55424485  0.77728505  0.34026049
   0.44436233  0.88960348  0.22715671
   0.66822438  0.66980156  0.45384442
   0.88751322  0.77787040  0.34015378
   0.77772594  0.88968101  0.22721048
   0.33194142  0.33418924  0.46216597
   0.31296766  0.32148656  0.58310394
   0.32187605  0.45822984  0.60603216
   0.49823128  0.43059562  0.52719296
   0.41078502  0.28078208  0.61390385
   0.15709398  0.19456778  0.58537508
Direct configuration=    13
   0.22222222  0.11111111  0.00000000
   0.22222222  0.44444444  0.00000000
   0.22222222  0.77777778  0.00000000
   0.55555556  0.11111111  0.00000000
   0.55555556  0.44444444  0.00000000
   0.55555556  0.77777778  0.00000000
   0.88888889  0.11111111  0.00000000
   0.88888889  0.44444444  0.00000000
   0.88888889  0.77777778  0.00000000
   0.00000000  0.00000000  0.11363913
   0.00000000  0.33333333  0.11363913
   0.00000000  0.66666667  0.11363913
   0.33333333  0.00000000  0.11363913
   0.33333333  0.33333333  0.11363913
   0.33333333  0.66666667  0.11363913
   0.66666667  0.00000000  0.11363913
   0.66666667  0.33333333  0.11363913
   0.66666667  0.66666667  0.11363913
   0.99378295  0.99612341  0.45193919
   0.22243772  0.11432485  0.34018394
   0.11073904  0.22272442  0.22640615
   0.33154259  0.99745341  0.45269455
   0.55427094  0.11242644  0.33997331
   0.44417546  0.22240954  0.22640447
   0.66492622  0.00049039  0.45211114
   0.88862489  0.11211986  0.33999126
   0.77775954  0.22283154  0.22708246
   0.99435531  0.33359643  0.45238862
   0.22202310  0.44348034  0.34017344
   0.11097793  0.55584944  0.22715168
   0.55432240  0.44507182  0.33916115
   0.44416445  0.55650788  0.22643978
   0.66859786  0.33416064  0.45289176
   0.88779173  0.44532300  0.33989954
   0.77774777  0.55627478  0.22671447
  -0.00008600  0.66797821  0.45215806
   0.22208216  0.77889754  0.33973279
   0.11094359  0.88985864  0.22719579
   0.33124601  0.67048133  0.45261967
   0.55417348  0.77723230  0.34008268
   0.44431471  0.88953846  0.22705582
   0.66824242  0.66981572  0.45358717
   0.88747036  0.77785019  0.33995364
   0.77769535  0.88962596  0.22709822
   0.33218915  0.33430014  0.46218902
   0.31302656  0.32154579  0.58313571
   0.32198805  0.45832046  0.60605828
   0.49817800  0.43047459  0.52726110
   0.41075615  0.28078401  0.61397234
   0.15713454  0.19469831  0.58544512
Direct configuration=    14
   0.22222222  0.11111111  0.00000000
   0.22222222  0.44444444  0.00000000
   0.22222222  0.77777778  0.00000000
   0.55555556  0.11111111  0.00000000
   0.55555556  0.44444444  0.00000000
   0.55555556  0.77777778  0.00000000
   0.88888889  0.11111111  0.00000000
   0.88888889  0.44444444  0.00000000
   0.88888889  0.77777778  0.00000000
   0.00000000  0.00000000  0.11363913
   0.00000000  0.33333333  0.11363913
   0.00000000  0.66666667  0.11363913
   0.33333333  0.00000000  0.11363913
   0.33333333  0.33333333  0.11363913
   0.33333333  0.66666667  0.11363913
   0.66666667  0.00000000  0.11363913
   0.66666667  0.33333333  0.11363913
   0.66666667  0.66666667  0.11363913
   0.99382455  0.99620509  0.45174639
   0.22245971  0.11433293  0.34008781
   0.11070296  0.22265881  0.22633480
   0.33154812  0.99743482  0.45252109
   0.55422824  0.11235912  0.33981894
   0.44418194  0.22240674  0.22633470
   0.66496245  0.00049002  0.45192663
   0.88857030  0.11205605  0.33983491
   0.77775337  0.22277535  0.22696826
   0.99440400  0.33351809  0.45219295
   0.22204243  0.44342309  0.34007230
   0.11098951  0.55582262  0.22705278
   0.55434001  0.44504816  0.33905477
   0.44416127  0.55643843  0.22637298
   0.66860923  0.33415508  0.45271562
   0.88776963  0.44521452  0.33974000
   0.77775207  0.55623463  0.22661758
  -0.00010784  0.66794406  0.45192131
   0.22204956  0.77885714  0.33958639
   0.11094657  0.88982015  0.22709522
   0.33126941  0.67049090  0.45244734
   0.55413450  0.77718702  0.33992529
   0.44427217  0.88948141  0.22693628
   0.66825244  0.66976972  0.45340252
   0.88743254  0.77784564  0.33978857
   0.77767293  0.88958470  0.22698211
   0.33235012  0.33436711  0.46221837
   0.31302286  0.32156492  0.58315729
   0.32205685  0.45837913  0.60607237
   0.49831814  0.43048352  0.52725854
   0.41069151  0.28076862  0.61401819
   0.15710591  0.19477700  0.58551031
Direct configuration=    15
   0.22222222  0.11111111  0.00000000
   0.22222222  0.44444444  0.00000000
   0.22222222  0.77777778  0.00000000
   0.55555556  0.11111111  0.00000000
   0.55555556  0.44444444  0.00000000
   0.55555556  0.77777778  0.00000000
   0.88888889  0.11111111  0.00000000
   0.88888889  0.44444444  0.00000000
   0.88888889  0.77777778  0.00000000
   0.00000000  0.00000000  0.11363913
   0.00000000  0.33333333  0.11363913
   0.00000000  0.66666667  0.11363913
   0.33333333  0.00000000  0.11363913
   0.33333333  0.33333333  0.11363913
   0.33333333  0.66666667  0.11363913
   0.66666667  0.00000000  0.11363913
   0.66666667  0.33333333  0.11363913
   0.66666667  0.66666667  0.11363913
   0.99401132  0.99639524  0.45126175
   0.22255682  0.11444003  0.33987256
   0.11068151  0.22253394  0.22616873
   0.33154861  0.99745426  0.45208063
   0.55414720  0.11219127  0.33945067
   0.44418191  0.22236594  0.22616672
   0.66499560  0.00044503  0.45147757
   0.88840893  0.11187507  0.33944301
   0.77769736  0.22263527  0.22672488
   0.99461306  0.33343498  0.45170645
   0.22212953  0.44323427  0.33985357
   0.11100867  0.55568210  0.22685164
   0.55431903  0.44494754  0.33880637
   0.44414766  0.55628679  0.22620580
   0.66868181  0.33404292  0.45225806
   0.88772183  0.44501574  0.33934224
   0.77775042  0.55612932  0.22641169
  -0.00015677  0.66786134  0.45134559
   0.22193397  0.77873051  0.33922020
   0.11095231  0.88979051  0.22688853
   0.33129994  0.67041805  0.45200007
   0.55404693  0.77710406  0.33955660
   0.44422908  0.88937470  0.22669636
   0.66833109  0.66983057  0.45293744
   0.88736636  0.77780684  0.33938382
   0.77759067  0.88945706  0.22673349
   0.33249480  0.33438767  0.46225298
   0.31305155  0.32163351  0.58318911
   0.32226282  0.45853579  0.60610505
   0.49857534  0.43044487  0.52728917
   0.41056564  0.28076624  0.61412976
   0.15707526  0.19500145  0.58564562
Direct configuration=    16
   0.22222222  0.11111111  0.00000000
   0.22222222  0.44444444  0.00000000
   0.22222222  0.77777778  0.00000000
   0.55555556  0.11111111  0.00000000
   0.55555556  0.44444444  0.00000000
   0.55555556  0.77777778  0.00000000
   0.88888889  0.11111111  0.00000000
   0.88888889  0.44444444  0.00000000
   0.88888889  0.77777778  0.00000000
   0.00000000  0.00000000  0.11363913
   0.00000000  0.33333333  0.11363913
   0.00000000  0.66666667  0.11363913
   0.33333333  0.00000000  0.11363913
   0.33333333  0.33333333  0.11363913
   0.33333333  0.66666667  0.11363913
   0.66666667  0.00000000  0.11363913
   0.66666667  0.33333333  0.11363913
   0.66666667  0.66666667  0.11363913
   0.99400381  0.99639229  0.45119817
   0.22256681  0.11443239  0.33982512
   0.11066979  0.22250650  0.22613353
   0.33156936  0.99746033  0.45202149