       N       E                     dE             d eps       ncg     rms          rms(c)
DAV:   1     0.552613047950E+04    0.55261E+04   -0.21077E+05  5616   0.167E+03
DAV:   2     0.661740020688E+03   -0.48644E+04   -0.45210E+04  5168   0.437E+02
DAV:   3    -0.234777505574E+03   -0.89652E+03   -0.80318E+03  5704   0.192E+02
DAV:   4    -0.316071200600E+03   -0.81294E+02   -0.79435E+02  6112   0.537E+01
DAV:   5    -0.318008290627E+03   -0.19371E+01   -0.19251E+01  6232   0.915E+00    0.102E+02
DAV:   6    -0.459294637868E+03   -0.14129E+03   -0.57131E+02  5824   0.118E+02    0.162E+02
DAV:   7    -0.287490662396E+03    0.17180E+03   -0.26889E+02  6096   0.793E+01    0.601E+01
DAV:   8    -0.289015338693E+03   -0.15247E+01   -0.86933E+01  6522   0.327E+01    0.307E+01
DAV:   9    -0.311484242069E+03   -0.22469E+02   -0.53095E+01  6432   0.338E+01    0.631E+01
DAV:  10    -0.298520376784E+03    0.12964E+02   -0.31403E+01  5960   0.391E+01    0.215E+01
DAV:  11    -0.301465136538E+03   -0.29448E+01   -0.16068E+01  6336   0.229E+01    0.247E+01
DAV:  12    -0.298847160957E+03    0.26180E+01   -0.95332E+00  5952   0.168E+01    0.829E+00
DAV:  13    -0.299464461940E+03   -0.61730E+00   -0.31021E+00  6056   0.702E+00    0.957E+00
DAV:  14    -0.299306814576E+03    0.15765E+00   -0.17260E+00  5920   0.591E+00    0.496E+00
DAV:  15    -0.299609900244E+03   -0.30309E+00   -0.85546E-01  5952   0.494E+00    0.709E+00
DAV:  16    -0.299436753514E+03    0.17315E+00   -0.64423E-01  5928   0.461E+00    0.220E+00
DAV:  17    -0.299459614889E+03   -0.22861E-01   -0.89978E-02  5592   0.920E-01    0.118E+00
DAV:  18    -0.299466262839E+03   -0.66480E-02   -0.15770E-02  6440   0.368E-01    0.871E-01
DAV:  19    -0.299471974800E+03   -0.57120E-02   -0.44193E-03  6776   0.253E-01    0.588E-01
DAV:  20    -0.299475561665E+03   -0.35869E-02   -0.28415E-03  6544   0.176E-01    0.380E-01
DAV:  21    -0.299476935930E+03   -0.13743E-02   -0.12250E-03  6960   0.125E-01    0.214E-01
DAV:  22    -0.299478396573E+03   -0.14606E-02   -0.51377E-04  6536   0.879E-02    0.142E-01
DAV:  23    -0.299479296143E+03   -0.89957E-03   -0.35747E-04  6480   0.620E-02    0.107E-01
DAV:  24    -0.299480009225E+03   -0.71308E-03   -0.25044E-04  6392   0.481E-02    0.825E-02
DAV:  25    -0.299480914455E+03   -0.90523E-03   -0.53891E-04  6040   0.745E-02    0.575E-02
DAV:  26    -0.299481534337E+03   -0.61988E-03   -0.46131E-04  6584   0.543E-02    0.398E-02
DAV:  27    -0.299481951652E+03   -0.41731E-03   -0.32837E-04  6104   0.442E-02    0.259E-02
DAV:  28    -0.299482319793E+03   -0.36814E-03   -0.34044E-04  6088   0.428E-02    0.183E-02
DAV:  29    -0.299482497799E+03   -0.17801E-03   -0.14407E-04  5552   0.244E-02    0.154E-02
DAV:  30    -0.299482609006E+03   -0.11121E-03   -0.58263E-05  3688   0.178E-02    0.891E-03
DAV:  31    -0.299482661843E+03   -0.52837E-04   -0.26844E-05  3360   0.980E-03    0.475E-03
DAV:  32    -0.299482719027E+03   -0.57184E-04   -0.16169E-05  2984   0.848E-03    0.347E-03
DAV:  33    -0.299482709036E+03    0.99910E-05   -0.31227E-06  2856   0.558E-03
   1 F= -.29948271E+03 E0= -.29948271E+03  d E =-.299483E+03  mag=     0.0944
       N       E                     dE             d eps       ncg     rms          rms(c)
DAV:   1    -0.298983381837E+03    0.49934E+00   -0.13247E+01  7568   0.402E+01    0.214E+00
DAV:   2    -0.299578401489E+03   -0.59502E+00   -0.60517E+00  5318   0.438E+00    0.156E+00
DAV:   3    -0.299597905313E+03   -0.19504E-01   -0.29039E-01  6344   0.233E+00    0.219E+00
DAV:   4    -0.299585896203E+03    0.12009E-01   -0.11661E-01  6120   0.158E+00    0.106E+00
DAV:   5    -0.299580522382E+03    0.53738E-02   -0.54961E-02  6224   0.972E-01    0.129E+00
DAV:   6    -0.299578591398E+03    0.19310E-02   -0.24549E-02  6512   0.849E-01    0.545E-01
DAV:   7    -0.299579528888E+03   -0.93749E-03   -0.72524E-03  6824   0.535E-01    0.585E-01
DAV:   8    -0.299578014143E+03    0.15147E-02   -0.47255E-03  6496   0.451E-01    0.229E-01
DAV:   9    -0.299577923469E+03    0.90674E-04   -0.15221E-03  6088   0.187E-01    0.127E-01
DAV:  10    -0.299577845193E+03    0.78277E-04   -0.35607E-04  5984   0.896E-02    0.106E-01
DAV:  11    -0.299577580795E+03    0.26440E-03   -0.23678E-04  5800   0.941E-02    0.848E-02
DAV:  12    -0.299577652493E+03   -0.71698E-04   -0.61666E-05  5104   0.461E-02    0.435E-02
DAV:  13    -0.299577596076E+03    0.56417E-04   -0.32648E-05  4056   0.154E-02    0.186E-02
DAV:  14    -0.299577557931E+03    0.38145E-04   -0.81309E-06  2848   0.656E-03    0.110E-02
DAV:  15    -0.299577532641E+03    0.25290E-04   -0.33995E-06  2728   0.425E-03    0.919E-03
DAV:  16    -0.299577499602E+03    0.33039E-04   -0.62807E-06  2728   0.541E-03    0.757E-03
DAV:  17    -0.299577415274E+03    0.84328E-04   -0.15746E-05  2912   0.111E-02    0.366E-02
DAV:  18    -0.299577425342E+03   -0.10068E-04   -0.26999E-06  2704   0.447E-03    0.349E-02
DAV:  19    -0.299577439931E+03   -0.14590E-04    0.82068E-06  2704   0.202E-03    0.540E-03
DAV:  20    -0.299577404986E+03    0.34945E-04    0.88458E-06  2704   0.636E-03    0.333E-02
DAV:  21    -0.299577422850E+03   -0.17864E-04    0.18956E-07  2704   0.351E-03    0.659E-03
DAV:  22    -0.299577417293E+03    0.55574E-05   -0.55949E-07  2704   0.262E-03
   2 F= -.29957742E+03 E0= -.29957742E+03  d E =-.947083E-01  mag=     0.1197
       N       E                     dE             d eps       ncg     rms          rms(c)
DAV:   1    -0.299526438123E+03    0.50985E-01   -0.34072E+00  7284   0.147E+01    0.101E+00
DAV:   2    -0.299614931795E+03   -0.88494E-01   -0.92008E-01  5688   0.188E+00    0.932E-01
DAV:   3    -0.299630559590E+03   -0.15628E-01   -0.11341E-01  6136   0.152E+00    0.165E+00
DAV:   4    -0.299611891421E+03    0.18668E-01   -0.64073E-02  6000   0.942E-01    0.568E-01
DAV:   5    -0.299615263050E+03   -0.33716E-02   -0.78063E-03  6264   0.382E-01    0.380E-01
DAV:   6    -0.299613500811E+03    0.17622E-02   -0.16813E-03  6584   0.198E-01    0.203E-01
DAV:   7    -0.299613506694E+03   -0.58829E-05   -0.13277E-03  6208   0.218E-01    0.227E-01
DAV:   8    -0.299613756577E+03   -0.24988E-03   -0.10509E-03  6352   0.212E-01    0.111E-01
DAV:   9    -0.299613412532E+03    0.34404E-03   -0.29490E-04  6360   0.103E-01    0.556E-02
DAV:  10    -0.299613536434E+03   -0.12390E-03   -0.96449E-05  5728   0.549E-02    0.512E-02
DAV:  11    -0.299613477679E+03    0.58754E-04   -0.41181E-05  4616   0.437E-02    0.330E-02
DAV:  12    -0.299613517927E+03   -0.40248E-04   -0.14206E-05  2848   0.145E-02    0.155E-02
DAV:  13    -0.299613534173E+03   -0.16246E-04   -0.17370E-05  2928   0.955E-03    0.762E-03
DAV:  14    -0.299613550532E+03   -0.16358E-04   -0.50505E-06  2704   0.476E-03    0.681E-03
DAV:  15    -0.299613564267E+03   -0.13735E-04   -0.24143E-06  2704   0.344E-03    0.607E-03
DAV:  16    -0.299613593338E+03   -0.29072E-04   -0.51436E-06  2704   0.479E-03    0.540E-03
DAV:  17    -0.299613645921E+03   -0.52583E-04    0.31241E-05  2880   0.123E-02    0.362E-02
DAV:  18    -0.299613641183E+03    0.47384E-05   -0.26094E-06  2704   0.442E-03
   3 F= -.29961364E+03 E0= -.29961364E+03  d E =-.362239E-01  mag=     0.1180
       N       E                     dE             d eps       ncg     rms          rms(c)
DAV:   1    -0.299492708977E+03    0.12094E+00   -0.41475E+00  7784   0.202E+01    0.109E+00
DAV:   2    -0.299636717268E+03   -0.14401E+00   -0.14736E+00  5690   0.226E+00    0.103E+00
DAV:   3    -0.299653604954E+03   -0.16888E-01   -0.13677E-01  6176   0.163E+00    0.180E+00
DAV:   4    -0.299633116262E+03    0.20489E-01   -0.78517E-02  6024   0.102E+00    0.685E-01
DAV:   5    -0.299636251656E+03   -0.31354E-02   -0.95021E-03  6240   0.406E-01    0.380E-01
DAV:   6    -0.299635121361E+03    0.11303E-02   -0.12909E-03  6568   0.172E-01    0.238E-01
DAV:   7    -0.299635231381E+03   -0.11002E-03   -0.17117E-03  6080   0.246E-01    0.237E-01
DAV:   8    -0.299634985968E+03    0.24541E-03   -0.14536E-03  6256   0.246E-01    0.142E-01
DAV:   9    -0.299634835233E+03    0.15074E-03   -0.43920E-04  6296   0.127E-01    0.523E-02
DAV:  10    -0.299634823161E+03    0.12072E-04   -0.71708E-05  5584   0.344E-02    0.362E-02
DAV:  11    -0.299634811401E+03    0.11760E-04   -0.26693E-05  3688   0.331E-02    0.430E-02
DAV:  12    -0.299634826647E+03   -0.15246E-04   -0.24619E-05  3448   0.331E-02    0.179E-02
DAV:  13    -0.299634771572E+03    0.55075E-04   -0.12681E-05  3128   0.118E-02    0.512E-03
DAV:  14    -0.299634761271E+03    0.10301E-04   -0.35910E-06  2704   0.437E-03    0.456E-03
DAV:  15    -0.299634749084E+03    0.12187E-04   -0.66431E-07  2704   0.228E-03    0.335E-03
DAV:  16    -0.299634742898E+03    0.61861E-05   -0.57460E-07  2704   0.201E-03
   4 F= -.29963474E+03 E0= -.29963474E+03  d E =-.211017E-01  mag=     0.1020
       N       E                     dE             d eps       ncg     rms          rms(c)
DAV:   1    -0.299593943793E+03    0.40805E-01   -0.11739E+00  7768   0.117E+01    0.580E-01
DAV:   2    -0.299640367698E+03   -0.46424E-01   -0.47658E-01  5468   0.122E+00    0.421E-01
DAV:   3    -0.299644712279E+03   -0.43446E-02   -0.24530E-02  6360   0.749E-01    0.833E-01
DAV:   4    -0.299639486841E+03    0.52254E-02   -0.13653E-02  6226   0.495E-01    0.261E-01
DAV:   5    -0.299641594467E+03   -0.21076E-02   -0.21014E-03  6200   0.194E-01    0.245E-01
DAV:   6    -0.299640507126E+03    0.10873E-02   -0.83333E-04  6408   0.131E-01    0.130E-01
DAV:   7    -0.299640467198E+03    0.39928E-04   -0.54081E-04  6192   0.144E-01    0.122E-01
DAV:   8    -0.299640548139E+03   -0.80941E-04   -0.34973E-04  6176   0.122E-01    0.738E-02
DAV:   9    -0.299640454616E+03    0.93524E-04   -0.95038E-05  5680   0.600E-02    0.217E-02
DAV:  10    -0.299640485546E+03   -0.30930E-04   -0.25147E-05  3544   0.280E-02    0.277E-02
DAV:  11    -0.299640459068E+03    0.26478E-04   -0.12765E-05  2800   0.233E-02    0.131E-02
DAV:  12    -0.299640458056E+03    0.10121E-05   -0.35572E-06  2752   0.621E-03
   5 F= -.29964046E+03 E0= -.29964046E+03  d E =-.571516E-02  mag=     0.1047
       N       E                     dE             d eps       ncg     rms          rms(c)
DAV:   1    -0.299612644496E+03    0.27815E-01   -0.69009E-01  7752   0.944E+00    0.457E-01
DAV:   2    -0.299642324223E+03   -0.29680E-01   -0.30375E-01  5422   0.979E-01    0.288E-01
DAV:   3    -0.299644042358E+03   -0.17181E-02   -0.10095E-02  6400   0.496E-01    0.530E-01
DAV:   4    -0.299641879722E+03    0.21626E-02   -0.40236E-03  6232   0.339E-01    0.172E-01
DAV:   5    -0.299643766060E+03   -0.18863E-02   -0.13651E-03  6224   0.157E-01    0.238E-01
DAV:   6    -0.299642345457E+03    0.14206E-02   -0.95642E-04  5912   0.126E-01    0.989E-02
DAV:   7    -0.299642461760E+03   -0.11630E-03   -0.34523E-04  5912   0.118E-01    0.102E-01
DAV:   8    -0.299642426944E+03    0.34816E-04   -0.18084E-04  5952   0.890E-02    0.414E-02
DAV:   9    -0.299642419419E+03    0.75246E-05   -0.37720E-05  4616   0.349E-02
   6 F= -.29964242E+03 E0= -.29964242E+03  d E =-.196136E-02  mag=     0.1030
       N       E                     dE             d eps       ncg     rms          rms(c)
DAV:   1    -0.299635772676E+03    0.66543E-02   -0.14892E-01  7808   0.436E+00    0.217E-01
DAV:   2    -0.299642087201E+03   -0.63145E-02   -0.65881E-02  5374   0.468E-01    0.141E-01
DAV:   3    -0.299642758419E+03   -0.67122E-03   -0.23474E-03  6400   0.246E-01    0.218E-01
DAV:   4    -0.299641990747E+03    0.76767E-03   -0.83591E-04  6256   0.180E-01    0.860E-02
DAV:   5    -0.299642643325E+03   -0.65258E-03   -0.39106E-04  5880   0.814E-02    0.113E-01
DAV:   6    -0.299642071168E+03    0.57216E-03   -0.24208E-04  5528   0.652E-02    0.483E-02
DAV:   7    -0.299642357297E+03   -0.28613E-03   -0.69805E-05  4976   0.517E-02    0.534E-02
DAV:   8    -0.299642195293E+03    0.16200E-03   -0.41396E-05  4520   0.399E-02    0.217E-02
DAV:   9    -0.299642244271E+03   -0.48978E-04   -0.11883E-05  2800   0.198E-02    0.103E-02
DAV:  10    -0.299642204489E+03    0.39782E-04   -0.55056E-06  2752   0.122E-02    0.972E-03
DAV:  11    -0.299642222097E+03   -0.17608E-04   -0.19771E-06  2686   0.727E-03    0.517E-03
DAV:  12    -0.299642224075E+03   -0.19781E-05   -0.68036E-07  2638   0.260E-03
   7 F= -.29964222E+03 E0= -.29964222E+03  d E =0.195344E-03  mag=     0.0968
