 vasp.5.4.4.2.16052018-CX13-ORIG (build Jul 06 2020 08:41:35) complex           
  
 executed on   Pi1911m201i197avx2 date 2024.01.01  08:30:20
 running on   48 total cores
 each image running on   12 cores
 distrk:  each k-point on   12 cores,    1 groups
 distr:  one band on NCORES_PER_BAND=  12 cores,    1 groups


--------------------------------------------------------------------------------------------------------


 INCAR:
 POTCAR:    PAW_PBE Al 04Jan2001                  
 POTCAR:    PAW_PBE Co_pv 23Apr2009               
 POTCAR:    PAW_PBE S 06Sep2000                   

 ----------------------------------------------------------------------------- 
|                                                                             |
|           W    W    AA    RRRRR   N    N  II  N    N   GGGG   !!!           |
|           W    W   A  A   R    R  NN   N  II  NN   N  G    G  !!!           |
|           W    W  A    A  R    R  N N  N  II  N N  N  G       !!!           |
|           W WW W  AAAAAA  RRRRR   N  N N  II  N  N N  G  GGG   !            |
|           WW  WW  A    A  R   R   N   NN  II  N   NN  G    G                |
|           W    W  A    A  R    R  N    N  II  N    N   GGGG   !!!           |
|                                                                             |
|      For optimal performance we recommend to set                            |
|        NCORE= 4 - approx SQRT( number of cores)                             |
|      NCORE specifies how many cores store one orbital (NPAR=cpu/NCORE).     |
|      This setting can  greatly improve the performance of VASP for DFT.     |
|      The default,   NCORE=1            might be grossly inefficient         |
|      on modern multi-core architectures or massively parallel machines.     |
|      Do your own testing !!!!                                               |
|      Unfortunately you need to use the default for GW and RPA calculations. |
|      (for HF NCORE is supported but not extensively tested yet)             |
|                                                                             |
 ----------------------------------------------------------------------------- 

 POTCAR:    PAW_PBE Al 04Jan2001                  
   VRHFIN =Al: s2p1                                                             
   LEXCH  = PE                                                                  
   EATOM  =    53.5387 eV,    3.9350 Ry                                         
                                                                                
   TITEL  = PAW_PBE Al 04Jan2001                                                
   LULTRA =        F    use ultrasoft PP ?                                      
   IUNSCR =        1    unscreen: 0-lin 1-nonlin 2-no                           
   RPACOR =    1.500    partial core radius                                     
   POMASS =   26.981; ZVAL   =    3.000    mass and valenz                      
   RCORE  =    1.900    outmost cutoff radius                                   
   RWIGS  =    2.650; RWIGS  =    1.402    wigner-seitz radius (au A)           
   ENMAX  =  240.300; ENMIN  =  180.225 eV                                      
   ICORE  =        2    local potential                                         
   LCOR   =        T    correct aug charges                                     
   LPAW   =        T    paw PP                                                  
   EAUG   =  291.052                                                            
   DEXC   =    0.000                                                            
   RMAX   =    1.939    core radius for proj-oper                               
   RAUG   =    1.300    factor for augmentation sphere                          
   RDEP   =    1.966    radius for radial grids                                 
   RDEPT  =    1.856    core radius for aug-charge                              
                                                                                
   Atomic configuration                                                         
    6 entries                                                                   
     n  l   j            E        occ.                                          
     1  0  0.50     -1511.1048   2.0000                                         
     2  0  0.50      -108.1629   2.0000                                         
     2  1  1.50       -69.6402   6.0000                                         
     3  0  0.50        -7.7528   2.0000                                         
     3  1  1.50        -2.7121   1.0000                                         
     3  2  2.50        -2.7212   0.0000                                         
   Description                                                                  
     l       E           TYP  RCUT    TYP  RCUT                                 
     0     -7.7528455     23  1.900                                             
     0     -3.3096929     23  1.900                                             
     1     -2.7120682     23  1.900                                             
     1     13.6058260     23  1.900                                             
     2     -2.7211652      7  1.900                                             
  local pseudopotential read in
  partial core-charges read in
  partial kinetic energy density read in
  atomic valenz-charges read in
  non local Contribution for L=           0  read in
    real space projection operators read in
  non local Contribution for L=           0  read in
    real space projection operators read in
  non local Contribution for L=           1  read in
    real space projection operators read in
  non local Contribution for L=           1  read in
    real space projection operators read in
    PAW grid and wavefunctions read in
 
   number of l-projection  operators is LMAX  =           4
   number of lm-projection operators is LMMAX =           8
 
 POTCAR:    PAW_PBE Co_pv 23Apr2009               
   VRHFIN =Co: 3pd7s1                                                           
   LEXCH  = PE                                                                  
   EATOM  =  2948.1334 eV,  216.6817 Ry                                         
                                                                                
   TITEL  = PAW_PBE Co_pv 23Apr2009                                             
   LULTRA =        F    use ultrasoft PP ?                                      
   IUNSCR =        1    unscreen: 0-lin 1-nonlin 2-no                           
   RPACOR =    2.000    partial core radius                                     
   POMASS =   58.933; ZVAL   =   15.000    mass and valenz                      
   RCORE  =    2.300    outmost cutoff radius                                   
   RWIGS  =    2.460; RWIGS  =    1.302    wigner-seitz radius (au A)           
   ENMAX  =  271.042; ENMIN  =  203.281 eV                                      
   ICORE  =        3    local potential                                         
   LCOR   =        T    correct aug charges                                     
   LPAW   =        T    paw PP                                                  
   EAUG   =  543.066                                                            
   DEXC   =    0.000                                                            
   RMAX   =    2.360    core radius for proj-oper                               
   RAUG   =    1.300    factor for augmentation sphere                          
   RDEP   =    2.393    radius for radial grids                                 
   RDEPT  =    1.841    core radius for aug-charge                              
                                                                                
   Atomic configuration                                                         
    8 entries                                                                   
     n  l   j            E        occ.                                          
     1  0  0.50     -7587.6674   2.0000                                         
     2  0  0.50      -893.6084   2.0000                                         
     2  1  1.50      -764.5805   6.0000                                         
     3  0  0.50       -97.5973   2.0000                                         
     3  1  1.50       -60.9648   6.0000                                         
     3  2  2.50        -4.2382   8.0000                                         
     4  0  0.50        -4.3746   1.0000                                         
     4  3  2.50        -1.3606   0.0000                                         
   Description                                                                  
     l       E           TYP  RCUT    TYP  RCUT                                 
     1    -60.9647990     23  2.000                                             
     1     -5.4423304     23  2.000                                             
     2     -4.2382362     23  2.300                                             
     2     -5.5988188     23  2.300                                             
     0     -4.3745797     23  2.300                                             
     0      5.7660125     23  2.300                                             
     3     -1.3605826     23  2.300                                             
  local pseudopotential read in
  partial core-charges read in
  partial kinetic energy density read in
  atomic valenz-charges read in
  non local Contribution for L=           1  read in
    real space projection operators read in
  non local Contribution for L=           1  read in
    real space projection operators read in
  non local Contribution for L=           2  read in
    real space projection operators read in
  non local Contribution for L=           2  read in
    real space projection operators read in
  non local Contribution for L=           0  read in
    real space projection operators read in
  non local Contribution for L=           0  read in
    real space projection operators read in
    PAW grid and wavefunctions read in
 
   number of l-projection  operators is LMAX  =           6
   number of lm-projection operators is LMMAX =          18
 
 POTCAR:    PAW_PBE S 06Sep2000                   
   VRHFIN =S : s2p4                                                             
   LEXCH  = PE                                                                  
   EATOM  =   276.8230 eV,   20.3459 Ry                                         
                                                                                
   TITEL  = PAW_PBE S 06Sep2000                                                 
   LULTRA =        F    use ultrasoft PP ?                                      
   IUNSCR =        1    unscreen: 0-lin 1-nonlin 2-no                           
   RPACOR =    1.500    partial core radius                                     
   POMASS =   32.066; ZVAL   =    6.000    mass and valenz                      
   RCORE  =    1.900    outmost cutoff radius                                   
   RWIGS  =    2.200; RWIGS  =    1.164    wigner-seitz radius (au A)           
   ENMAX  =  258.689; ENMIN  =  194.016 eV                                      
   ICORE  =        2    local potential                                         
   LCOR   =        T    correct aug charges                                     
   LPAW   =        T    paw PP                                                  
   EAUG   =  335.092                                                            
   DEXC   =    0.000                                                            
   RMAX   =    1.942    core radius for proj-oper                               
   RAUG   =    1.300    factor for augmentation sphere                          
   RDEP   =    1.954    radius for radial grids                                 
   RDEPT  =    1.744    core radius for aug-charge                              
                                                                                
   Atomic configuration                                                         
    6 entries                                                                   
     n  l   j            E        occ.                                          
     1  0  0.50     -2405.8406   2.0000                                         
     2  0  0.50      -211.7007   2.0000                                         
     2  1  1.50      -156.4958   6.0000                                         
     3  0  0.50       -17.2562   2.0000                                         
     3  1  0.50        -7.0085   4.0000                                         
     3  2  1.50        -6.8029   0.0000                                         
   Description                                                                  
     l       E           TYP  RCUT    TYP  RCUT                                 
     0    -17.2561641     23  1.900                                             
     0    -15.8743224     23  1.900                                             
     1     -7.0085400     23  1.900                                             
     1     -2.7779785     23  1.900                                             
     2     -6.8029130     23  1.900                                             
  local pseudopotential read in
  partial core-charges read in
  partial kinetic energy density read in
  atomic valenz-charges read in
  non local Contribution for L=           0  read in
    real space projection operators read in
  non local Contribution for L=           0  read in
    real space projection operators read in
  non local Contribution for L=           1  read in
    real space projection operators read in
  non local Contribution for L=           1  read in
    real space projection operators read in
    PAW grid and wavefunctions read in
 
   number of l-projection  operators is LMAX  =           4
   number of lm-projection operators is LMMAX =           8
 
 Optimization of the real space projectors (new method)

 maximal supplied QI-value         = 19.84
 optimisation between [QCUT,QGAM] = [ 11.51, 23.22] = [ 37.09,150.92] Ry 
 Optimized for a Real-space Cutoff    1.18 Angstroem

   l    n(q)    QCUT    max X(q) W(low)/X(q) W(high)/X(q)  e(spline) 
   0      8    11.508   176.870    0.11E-03    0.16E-03    0.40E-07
   0      8    11.508   105.762    0.11E-03    0.16E-03    0.39E-07
   1      8    11.508    55.370    0.23E-03    0.10E-03    0.75E-07
   1      8    11.508    20.208    0.21E-03    0.91E-04    0.68E-07
 Optimization of the real space projectors (new method)

 maximal supplied QI-value         = 16.25
 optimisation between [QCUT,QGAM] = [ 11.54, 23.24] = [ 37.28,151.24] Ry 
 Optimized for a Real-space Cutoff    1.32 Angstroem

   l    n(q)    QCUT    max X(q) W(low)/X(q) W(high)/X(q)  e(spline) 
   1      9    11.539     4.946    0.12E-03    0.47E-03    0.20E-06
   1      9    11.539     5.991    0.19E-03    0.70E-03    0.29E-06
   2      8    11.539    46.947    0.22E-03    0.40E-03    0.23E-06
   2      8    11.539    42.928    0.24E-03    0.42E-03    0.23E-06
   0      9    11.539    68.324    0.11E-03    0.13E-03    0.74E-07
   0      9    11.539    36.926    0.10E-03    0.12E-03    0.70E-07
 Optimization of the real space projectors (new method)

 maximal supplied QI-value         = 19.84
 optimisation between [QCUT,QGAM] = [ 11.51, 23.22] = [ 37.09,150.92] Ry 
 Optimized for a Real-space Cutoff    1.21 Angstroem

   l    n(q)    QCUT    max X(q) W(low)/X(q) W(high)/X(q)  e(spline) 
   0      8    11.508   187.594    0.96E-04    0.18E-03    0.54E-07
   0      8    11.508   164.243    0.96E-04    0.18E-03    0.54E-07
   1      8    11.508    67.533    0.18E-03    0.65E-04    0.94E-07
   1      8    11.508    50.729    0.18E-03    0.63E-04    0.92E-07
  PAW_PBE Al 04Jan2001                  :
 energy of atom  1       EATOM=  -53.5387
 kinetic energy error for atom=    0.0002 (will be added to EATOM!!)
  PAW_PBE Co_pv 23Apr2009               :
 energy of atom  2       EATOM=-2948.1334
 kinetic energy error for atom=    0.0056 (will be added to EATOM!!)
  PAW_PBE S 06Sep2000                   :
 energy of atom  3       EATOM= -276.8230
 kinetic energy error for atom=    0.0016 (will be added to EATOM!!)
 
 
 POSCAR: Al Co  S                                
  positions in direct lattice
  velocities in cartesian coordinates
 exchange correlation table for  LEXCH =        8
   RHO(1)=    0.500       N(1)  =     2000
   RHO(2)=  100.500       N(2)  =     4000
 
 POSCAR: Al Co  S                                
  positions in direct lattice
  velocities in cartesian coordinates
 
 POSCAR: Al Co  S                                
  positions in direct lattice
  velocities in cartesian coordinates
 


--------------------------------------------------------------------------------------------------------


 ion  position               nearest neighbor table
   1  0.000  0.000  0.000-  27 2.31  39 2.31  45 2.31  53 2.31
   2  0.248  0.748  0.748-  32 2.29  34 2.29  38 2.29  36 2.32
   3  0.500  0.000  0.500-  25 2.31  33 2.31  41 2.31  54 2.31
   4  0.500  0.500  0.000-  29 2.31  35 2.31  47 2.31  55 2.31
   5  0.752  0.252  0.748-  42 2.29  44 2.29  46 2.29  40 2.32
   6  0.752  0.748  0.252-  48 2.29  49 2.29  51 2.29  50 2.32
   7  0.173  0.327  0.327-  24 2.22  28 2.22  30 2.22  37 3.05  43 3.05  52 3.05
   8  0.127  0.126  0.627-  43 2.24  41 2.26  45 2.26  44 2.29  24 2.29  34 2.31
   9  0.873  0.874  0.627-  31 2.24  27 2.26  25 2.26  34 2.29  51 2.29  44 2.31
  10  0.375  0.125  0.875-  41 2.27  45 2.27  47 2.27  26 2.28  36 2.28  40 2.28
  11  0.625  0.875  0.875-  25 2.27  27 2.27  29 2.27  36 2.28  40 2.28  50 2.28
  12  0.127  0.373  0.874-  43 2.24  45 2.26  47 2.26  32 2.29  42 2.29  28 2.31
  13  0.873  0.627  0.874-  31 2.24  29 2.26  27 2.26  42 2.29  32 2.29  49 2.31
  14  0.374  0.373  0.627-  43 2.24  41 2.26  47 2.26  38 2.29  30 2.29  46 2.31
  15  0.626  0.627  0.627-  31 2.24  29 2.26  25 2.26  46 2.29  48 2.29  38 2.31
  16  0.375  0.875  0.125-  33 2.27  35 2.27  39 2.27  36 2.28  26 2.28  50 2.28
  17  0.374  0.627  0.373-  37 2.24  35 2.26  33 2.26  30 2.29  38 2.29  48 2.31
  18  0.127  0.627  0.126-  37 2.24  35 2.26  39 2.26  28 2.29  49 2.29  32 2.31
  19  0.127  0.874  0.373-  37 2.24  33 2.26  39 2.26  34 2.29  51 2.29  24 2.31
  20  0.873  0.373  0.126-  52 2.24  53 2.26  55 2.26  49 2.29  28 2.29  42 2.31
  21  0.873  0.126  0.373-  52 2.24  53 2.26  54 2.26  44 2.29  24 2.29  51 2.31
  22  0.625  0.125  0.125-  53 2.27  54 2.27  55 2.27  26 2.28  40 2.28  50 2.28
  23  0.626  0.373  0.373-  52 2.24  54 2.26  55 2.26  48 2.29  46 2.29  30 2.31
  24  0.110  0.114  0.390-   7 2.22   8 2.29  21 2.29  19 2.31
  25  0.638  0.862  0.640-   9 2.26  15 2.26  11 2.27   3 2.31
  26  0.388  0.112  0.112-  10 2.28  16 2.28  22 2.28
  27  0.860  0.862  0.862-   9 2.26  13 2.26  11 2.27   1 2.31
  28  0.110  0.390  0.114-   7 2.22  18 2.29  20 2.29  12 2.31
  29  0.638  0.640  0.862-  13 2.26  15 2.26  11 2.27   4 2.31
  30  0.386  0.390  0.390-   7 2.22  14 2.29  17 2.29  23 2.31
  31  0.858  0.642  0.642-   9 2.24  13 2.24  15 2.24
  32  0.110  0.610  0.886-  12 2.29  13 2.29   2 2.29  18 2.31
  33  0.362  0.862  0.360-  19 2.26  17 2.26  16 2.27   3 2.31
  34  0.110  0.886  0.610-   9 2.29  19 2.29   2 2.29   8 2.31
  35  0.362  0.640  0.138-  17 2.26  18 2.26  16 2.27   4 2.31
  36  0.388  0.888  0.888-  10 2.28  11 2.28  16 2.28   2 2.32
  37  0.142  0.642  0.358-  19 2.24  18 2.24  17 2.24   7 3.05
  38  0.386  0.610  0.610-  14 2.29  17 2.29   2 2.29  15 2.31
  39  0.140  0.862  0.138-  19 2.26  18 2.26  16 2.27   1 2.31
  40  0.612  0.112  0.888-  10 2.28  11 2.28  22 2.28   5 2.32
  41  0.362  0.138  0.640-   8 2.26  14 2.26  10 2.27   3 2.31
  42  0.890  0.390  0.886-  13 2.29  12 2.29   5 2.29  20 2.31
  43  0.142  0.358  0.642-  12 2.24   8 2.24  14 2.24   7 3.05
  44  0.890  0.114  0.610-   8 2.29  21 2.29   5 2.29   9 2.31
  45  0.140  0.138  0.862-  12 2.26   8 2.26  10 2.27   1 2.31
  46  0.614  0.390  0.610-  15 2.29  23 2.29   5 2.29  14 2.31
  47  0.362  0.360  0.862-  12 2.26  14 2.26  10 2.27   4 2.31
  48  0.614  0.610  0.390-  23 2.29  15 2.29   6 2.29  17 2.31
  49  0.890  0.610  0.114-  18 2.29  20 2.29   6 2.29  13 2.31
  50  0.612  0.888  0.112-  11 2.28  16 2.28  22 2.28   6 2.32
  51  0.890  0.886  0.390-   9 2.29  19 2.29   6 2.29  21 2.31
  52  0.858  0.358  0.358-  23 2.24  21 2.24  20 2.24   7 3.05
  53  0.860  0.138  0.138-  20 2.26  21 2.26  22 2.27   1 2.31
  54  0.638  0.138  0.360-  23 2.26  21 2.26  22 2.27   3 2.31
  55  0.638  0.360  0.138-  23 2.26  20 2.26  22 2.27   4 2.31
 
  LATTYP: Found a simple cubic cell.
 ALAT       =     9.6027250954
  
  Lattice vectors:
  
 A1 = (   9.6027250954,   0.0000000000,   0.0000000000)
 A2 = (   0.0000000000,   9.6027250954,   0.0000000000)
 A3 = (   0.0000000000,   0.0000000000,   9.6027250954)


Analysis of symmetry for initial positions (statically):
=====================================================================
 Subroutine PRICEL returns:
 Original cell was already a primitive cell.
 

 Routine SETGRP: Setting up the symmetry group for a 
 simple cubic supercell.


 Subroutine GETGRP returns: Found  6 space group operations
 (whereof  2 operations were pure point group operations)
 out of a pool of 48 trial point group operations.


The static configuration has the point symmetry C_1h.
 The point group associated with its full space group is C_3v.


Analysis of symmetry for dynamics (positions and initial velocities):
=====================================================================
 Subroutine PRICEL returns:
 Original cell was already a primitive cell.
 

 Routine SETGRP: Setting up the symmetry group for a 
 simple cubic supercell.


 Subroutine GETGRP returns: Found  6 space group operations
 (whereof  2 operations were pure point group operations)
 out of a pool of 48 trial point group operations.


The dynamic configuration has the point symmetry C_1h.
 The point group associated with its full space group is C_3v.


Analysis of structural, dynamic, and magnetic symmetry:
=====================================================================
 Subroutine PRICEL returns:
 Original cell was already a primitive cell.
 

 Routine SETGRP: Setting up the symmetry group for a 
 simple cubic supercell.


 Subroutine GETGRP returns: Found  6 space group operations
 (whereof  2 operations were pure point group operations)
 out of a pool of 48 trial point group operations.


The magnetic configuration has the point symmetry C_1h.
 The point group associated with its full space group is C_3v.


 Subroutine INISYM returns: Found  6 space group operations
 (whereof  2 operations are pure point group operations),
 and found     1 'primitive' translations

 
 
 KPOINTS: Monkhorst Pack                          

Automatic generation of k-mesh.
Space group operators:
 irot       det(A)        alpha          n_x          n_y          n_z        tau_x        tau_y        tau_z
    1     1.000000     0.000000     1.000000     0.000000     0.000000     0.000000     0.000000     0.000000
    2    -1.000000   180.000000     0.000000    -0.707107     0.707107     0.000000     0.000000     0.000000
    3     1.000000   120.000000    -0.577350     0.577350     0.577350     0.500000     0.500000     0.000000
    4    -1.000000   180.000000     0.707107     0.000000     0.707107     0.500000     0.000000     0.500000
    5    -1.000000   180.000000     0.707107     0.707107     0.000000     0.500000     0.500000     0.000000
    6     1.000000   120.000000     0.577350    -0.577350    -0.577350     0.500000     0.000000     0.500000
 
 Subroutine IBZKPT returns following result:
 ===========================================
 
 Found      4 irreducible k-points:
 
 Following reciprocal coordinates:
            Coordinates               Weight
  0.000000  0.000000  0.000000      1.000000
  0.500000  0.000000  0.000000      3.000000
  0.500000  0.500000  0.000000      3.000000
  0.500000  0.500000  0.500000      1.000000
 
 Following cartesian coordinates:
            Coordinates               Weight
  0.000000  0.000000  0.000000      1.000000
  0.052069  0.000000  0.000000      3.000000
  0.052069  0.052069  0.000000      3.000000
  0.052069  0.052069  0.052069      1.000000
 
 TETIRR: Found      4 inequivalent tetrahedra from       48


--------------------------------------------------------------------------------------------------------




 Dimension of arrays:
   k-points           NKPTS =      4   k-points in BZ     NKDIM =      4   number of bands    NBANDS=    323
   number of dos      NEDOS =    301   number of ions     NIONS =     55
   non local maximal  LDIM  =      6   non local SUM 2l+1 LMDIM =     18
   total plane-waves  NPLWV = 373248
   max r-space proj   IRMAX =   4139   max aug-charges    IRDMAX=  16603
   dimension x,y,z NGX =    72 NGY =   72 NGZ =   72
   dimension x,y,z NGXF=   144 NGYF=  144 NGZF=  144
   support grid    NGXF=   144 NGYF=  144 NGZF=  144
   ions per type =               7  16  32
   NGX,Y,Z   is equivalent  to a cutoff of  12.46, 12.46, 12.46 a.u.
   NGXF,Y,Z  is equivalent  to a cutoff of  24.93, 24.93, 24.93 a.u.

 SYSTEM =  AlCo2S4                                 
 POSCAR =  Al Co  S                                

 Startparameter for this run:
   NWRITE =      2    write-flag & timer
   PREC   = accura    normal or accurate (medium, high low for compatibility)
   ISTART =      0    job   : 0-new  1-cont  2-samecut
   ICHARG =      1    charge: 1-file 2-atom 10-const
   ISPIN  =      2    spin polarized calculation?
   LNONCOLLINEAR =      F non collinear calculations
   LSORBIT =      F    spin-orbit coupling
   INIWAV =      1    electr: 0-lowe 1-rand  2-diag
   LASPH  =      F    aspherical Exc in radial PAW
   METAGGA=      F    non-selfconsistent MetaGGA calc.

 Electronic Relaxation 1
   ENCUT  =  520.0 eV  38.22 Ry    6.18 a.u.  17.85 17.85 17.85*2*pi/ulx,y,z
   ENINI  =  520.0     initial cutoff
   ENAUG  =  543.1 eV  augmentation charge cutoff
   NELM   =    100;   NELMIN=  2; NELMDL= -5     # of ELM steps 
   EDIFF  = 0.1E-04   stopping-criterion for ELM
   LREAL  =      T    real-space projection
   NLSPLINE    = F    spline interpolate recip. space projectors
   LCOMPAT=      F    compatible to vasp.4.4
   GGA_COMPAT  = T    GGA compatible to vasp.4.4-vasp.4.6
   LMAXPAW     = -100 max onsite density
   LMAXMIX     =    4 max onsite mixed and CHGCAR
   VOSKOWN=      0    Vosko Wilk Nusair interpolation
   ROPT   =   -0.00025  -0.00025  -0.00025
 Ionic relaxation
   EDIFFG = -.5E-01   stopping-criterion for IOM
   NSW    =    199    number of steps for IOM
   NBLOCK =      1;   KBLOCK =    199    inner block; outer block 
   IBRION =      1    ionic relax: 0-MD 1-quasi-New 2-CG
   NFREE  =      0    steps in history (QN), initial steepest desc. (CG)
   ISIF   =      2    stress and relaxation
   IWAVPR =     11    prediction:  0-non 1-charg 2-wave 3-comb
   ISYM   =      2    0-nonsym 1-usesym 2-fastsym
   LCORR  =      T    Harris-Foulkes like correction to forces

   POTIM  = 0.5000    time-step for ionic-motion
   TEIN   =    0.0    initial temperature
   TEBEG  =    0.0;   TEEND  =   0.0 temperature during run
   SMASS  =  -3.00    Nose mass-parameter (am)
   estimated Nose-frequenzy (Omega)   =  0.10E-29 period in steps =****** mass=  -0.211E-26a.u.
   SCALEE = 1.0000    scale energy and forces
   NPACO  =    256;   APACO  = 16.0  distance and # of slots for P.C.
   PSTRESS=    0.0 pullay stress

  Mass of Ions in am
   POMASS =  26.98 58.93 32.07
  Ionic Valenz
   ZVAL   =   3.00 15.00  6.00
  Atomic Wigner-Seitz radii
   RWIGS  =  -1.00 -1.00 -1.00
  virtual crystal weights 
   VCA    =   1.00  1.00  1.00
   NELECT =     453.0000    total number of electrons
   NUPDOWN=      -1.0000    fix difference up-down

 DOS related values:
   EMIN   =  10.00;   EMAX   =-10.00  energy-range for DOS
   EFERMI =   0.00
   ISMEAR =    -5;   SIGMA  =   0.05  broadening in eV -4-tet -1-fermi 0-gaus

 Electronic relaxation 2 (details)
   IALGO  =     38    algorithm
   LDIAG  =      T    sub-space diagonalisation (order eigenvalues)
   LSUBROT=      F    optimize rotation matrix (better conditioning)
   TURBO    =      0    0=normal 1=particle mesh
   IRESTART =      0    0=no restart 2=restart with 2 vectors
   NREBOOT  =      0    no. of reboots
   NMIN     =      0    reboot dimension
   EREF     =   0.00    reference energy to select bands
   IMIX   =      4    mixing-type and parameters
     AMIX     =   0.40;   BMIX     =  1.00
     AMIX_MAG =   1.60;   BMIX_MAG =  1.00
     AMIN     =   0.10
     WC   =   100.;   INIMIX=   1;  MIXPRE=   1;  MAXMIX= -45

 Intra band minimization:
   WEIMIN = 0.0010     energy-eigenvalue tresh-hold
   EBREAK =  0.77E-08  absolut break condition
   DEPER  =   0.30     relativ break condition  

   TIME   =   0.40     timestep for ELM

  volume/ion in A,a.u.               =      16.10       108.65
  Fermi-wavevector in a.u.,A,eV,Ry     =   1.309322  2.474259 23.324789  1.714324
  Thomas-Fermi vector in A             =   2.439928
 
 Write flags
   LWAVE        =      F    write WAVECAR
   LDOWNSAMPLE  =      F    k-point downsampling of WAVECAR
   LCHARG       =      F    write CHGCAR
   LVTOT        =      F    write LOCPOT, total local potential
   LVHAR        =      F    write LOCPOT, Hartree potential only
   LELF         =      F    write electronic localiz. function (ELF)
   LORBIT       =     11    0 simple, 1 ext, 2 COOP (PROOUT), +10 PAW based schemes


 Dipole corrections
   LMONO  =      F    monopole corrections only (constant potential shift)
   LDIPOL =      F    correct potential (dipole corrections)
   IDIPOL =      0    1-x, 2-y, 3-z, 4-all directions 
   EPSILON=  1.0000000 bulk dielectric constant

 Exchange correlation treatment:
   GGA     =    --    GGA type
   LEXCH   =     8    internal setting for exchange type
   VOSKOWN=      0    Vosko Wilk Nusair interpolation
   LHFCALC =     F    Hartree Fock is set to
   LHFONE  =     F    Hartree Fock one center treatment
   AEXX    =    0.0000 exact exchange contribution

 Linear response parameters
   LEPSILON=     F    determine dielectric tensor
   LRPA    =     F    only Hartree local field effects (RPA)
   LNABLA  =     F    use nabla operator in PAW spheres
   LVEL    =     F    velocity operator in full k-point grid
   LINTERFAST=   F  fast interpolation
   KINTER  =     0    interpolate to denser k-point grid
   CSHIFT  =0.1000    complex shift for real part using Kramers Kronig
   OMEGAMAX=  -1.0    maximum frequency
   DEG_THRESHOLD= 0.2000000E-02 threshold for treating states as degnerate
   RTIME   =   -0.100 relaxation time in fs
  (WPLASMAI=    0.000 imaginary part of plasma frequency in eV, 0.658/RTIME)
   DFIELD  = 0.0000000 0.0000000 0.0000000 field for delta impulse in time
 
 Orbital magnetization related:
   ORBITALMAG=     F  switch on orbital magnetization
   LCHIMAG   =     F  perturbation theory with respect to B field
   DQ        =  0.001000  dq finite difference perturbation B field
   LLRAUG    =     F  two centre corrections for induced B field



--------------------------------------------------------------------------------------------------------


 quasi-Newton-method for relaxation of ions
 charge density and potential will be updated during run
 spin polarized calculation
 Variant of blocked Davidson
 Davidson routine will perform the subspace rotation
 perform sub-space diagonalisation
    after iterative eigenvector-optimisation
 modified Broyden-mixing scheme, WC =      100.0
 initial mixing is a Kerker type mixing with AMIX =  0.4000 and BMIX =      1.0000
 Hartree-type preconditioning will be used
 using additional bands           96
 real space projection scheme for non local part
 use partial core corrections
 calculate Harris-corrections to forces 
   (improved forces if not selfconsistent)
 use gradient corrections 
 use of overlap-Matrix (Vanderbilt PP)
 Fermi weights with tetrahedron method with Bloechl corrections


--------------------------------------------------------------------------------------------------------


  energy-cutoff  :      520.00
  volume of cell :      885.49
      direct lattice vectors                 reciprocal lattice vectors
     9.602725095  0.000000000  0.000000000     0.104137106  0.000000000  0.000000000
     0.000000000  9.602725095  0.000000000     0.000000000  0.104137106  0.000000000
     0.000000000  0.000000000  9.602725095     0.000000000  0.000000000  0.104137106

  length of vectors
     9.602725095  9.602725095  9.602725095     0.104137106  0.104137106  0.104137106


 
 k-points in units of 2pi/SCALE and weight: Monkhorst Pack                          
   0.00000000  0.00000000  0.00000000       0.125
   0.05206855  0.00000000  0.00000000       0.375
   0.05206855  0.05206855  0.00000000       0.375
   0.05206855  0.05206855  0.05206855       0.125
 
 k-points in reciprocal lattice and weights: Monkhorst Pack                          
   0.00000000  0.00000000  0.00000000       0.125
   0.50000000  0.00000000  0.00000000       0.375
   0.50000000  0.50000000  0.00000000       0.375
   0.50000000  0.50000000  0.50000000       0.125
 
 position of ions in fractional coordinates (direct lattice) 
   0.00000000  0.00000000  0.00000000
   0.24816687  0.74816687  0.74816687
   0.50000000  0.00000000  0.50000000
   0.50000000  0.50000000  0.00000000
   0.75183313  0.25183313  0.74816687
   0.75183313  0.74816687  0.25183313
   0.17316687  0.32683313  0.32683313
   0.12728522  0.12621581  0.62728522
   0.87271478  0.87378419  0.62728522
   0.37526679  0.12473321  0.87526679
   0.62473321  0.87526679  0.87526679
   0.12728522  0.37271478  0.87378419
   0.87271478  0.62728522  0.87378419
   0.37378419  0.37271478  0.62728522
   0.62621581  0.62728522  0.62728522
   0.37526679  0.87526679  0.12473321
   0.37378419  0.62728522  0.37271478
   0.12728522  0.62728522  0.12621581
   0.12728522  0.87378419  0.37271478
   0.87271478  0.37271478  0.12621581
   0.87271478  0.12621581  0.37271478
   0.62473321  0.12473321  0.12473321
   0.62621581  0.37271478  0.37271478
   0.11040639  0.11363286  0.38959361
   0.63809977  0.86190023  0.63971123
   0.38779841  0.11220159  0.11220159
   0.86028877  0.86190023  0.86190023
   0.11040639  0.38959361  0.11363286
   0.63809977  0.63971123  0.86190023
   0.38636714  0.38959361  0.38959361
   0.85812981  0.64187019  0.64187019
   0.11040639  0.61040639  0.88636714
   0.36190023  0.86190023  0.36028877
   0.11040639  0.88636714  0.61040639
   0.36190023  0.63971123  0.13809977
   0.38779841  0.88779841  0.88779841
   0.14187019  0.64187019  0.35812981
   0.38636714  0.61040639  0.61040639
   0.13971123  0.86190023  0.13809977
   0.61220159  0.11220159  0.88779841
   0.36190023  0.13809977  0.63971123
   0.88959361  0.38959361  0.88636714
   0.14187019  0.35812981  0.64187019
   0.88959361  0.11363286  0.61040639
   0.13971123  0.13809977  0.86190023
   0.61363286  0.38959361  0.61040639
   0.36190023  0.36028877  0.86190023
   0.61363286  0.61040639  0.38959361
   0.88959361  0.61040639  0.11363286
   0.61220159  0.88779841  0.11220159
   0.88959361  0.88636714  0.38959361
   0.85812981  0.35812981  0.35812981
   0.86028877  0.13809977  0.13809977
   0.63809977  0.13809977  0.36028877
   0.63809977  0.36028877  0.13809977
 
 position of ions in cartesian coordinates  (Angst):
   0.00000000  0.00000000  0.00000000
   2.38307820  7.18444075  7.18444075
   4.80136255  0.00000000  4.80136255
   4.80136255  4.80136255  0.00000000
   7.21964689  2.41828434  7.18444075
   7.21964689  7.18444075  2.41828434
   1.66287382  3.13848873  3.13848873
   1.22228500  1.21201577  6.02364755
   8.38044009  8.39070932  6.02364755
   3.60358382  1.19777872  8.40494637
   5.99914127  8.40494637  8.40494637
   1.22228500  3.57907754  8.39070932
   8.38044009  6.02364755  8.39070932
   3.58934678  3.57907754  6.02364755
   6.01337832  6.02364755  6.02364755
   3.60358382  8.40494637  1.19777872
   3.58934678  6.02364755  3.57907754
   1.22228500  6.02364755  1.21201577
   1.22228500  8.39070932  3.57907754
   8.38044009  3.57907754  1.21201577
   8.38044009  1.21201577  3.57907754
   5.99914127  1.19777872  1.19777872
   6.01337832  3.57907754  3.57907754
   1.06020222  1.09118511  3.74116032
   6.12749671  8.27659094  6.14297108
   3.72392154  1.07744101  1.07744101
   8.26111656  8.27659094  8.27659094
   1.06020222  3.74116032  1.09118511
   6.12749671  6.14297108  8.27659094
   3.71017744  3.74116032  3.74116032
   8.24038465  6.16370300  6.16370300
   1.06020222  5.86156477  8.51153998
   3.47522839  8.27659094  3.45975401
   1.06020222  8.51153998  5.86156477
   3.47522839  6.14297108  1.32613416
   3.72392154  8.52528409  8.52528409
   1.36234045  6.16370300  3.43902210
   3.71017744  5.86156477  5.86156477
   1.34160853  8.27659094  1.32613416
   5.87880356  1.07744101  8.52528409
   3.47522839  1.32613416  6.14297108
   8.54252287  3.74116032  8.51153998
   1.36234045  3.43902210  6.16370300
   8.54252287  1.09118511  5.86156477
   1.34160853  1.32613416  8.27659094
   5.89254766  3.74116032  5.86156477
   3.47522839  3.45975401  8.27659094
   5.89254766  5.86156477  3.74116032
   8.54252287  5.86156477  1.09118511
   5.87880356  8.52528409  1.07744101
   8.54252287  8.51153998  3.74116032
   8.24038465  3.43902210  3.43902210
   8.26111656  1.32613416  1.32613416
   6.12749671  1.32613416  3.45975401
   6.12749671  3.45975401  1.32613416
 


--------------------------------------------------------------------------------------------------------


 k-point  1 :   0.0000 0.0000 0.0000  plane waves:   23847
 k-point  2 :   0.5000 0.0000 0.0000  plane waves:   23844
 k-point  3 :   0.5000 0.5000 0.0000  plane waves:   23900
 k-point  4 :   0.5000 0.5000 0.5000  plane waves:   23984

 maximum and minimum number of plane-waves per node :      2020     1956

 maximum number of plane-waves:     23984
 maximum index in each direction: 
   IXMAX=   17   IYMAX=   17   IZMAX=   17
   IXMIN=  -18   IYMIN=  -18   IZMIN=  -18


 real space projection operators:
  total allocation   :      16158.81 KBytes
  max/ min on nodes  :       1377.41       1315.16


 parallel 3D FFT for wavefunctions:
    minimum data exchange during FFTs selected (reduces bandwidth)
 parallel 3D FFT for charge:
    minimum data exchange during FFTs selected (reduces bandwidth)


 total amount of memory used by VASP MPI-rank0   154731. kBytes
=======================================================================

   base      :      30000. kBytes
   nonlr-proj:       5462. kBytes
   fftplans  :       9381. kBytes
   grid      :      24648. kBytes
   one-center:        155. kBytes
   wavefun   :      85085. kBytes
 
     INWAV:  cpu time    0.0001: real time    0.0004
 Broyden mixing: mesh for mixing (old mesh)
   NGX = 35   NGY = 35   NGZ = 35
  (NGX  =144   NGY  =144   NGZ  =144)
  gives a total of  42875 points

 initial charge density was supplied:
 charge density of overlapping atoms calculated
 number of electron     453.0000000 magnetization     103.4000000
 keeping initial charge density in first step


--------------------------------------------------------------------------------------------------------


 Maximum index for non-local projection operator          323
 Maximum index for augmentation-charges         1389 (set IRDMAX)


--------------------------------------------------------------------------------------------------------


 First call to EWALD:  gamma=   0.185
 Maximum number of real-space cells 3x 3x 3
 Maximum number of reciprocal cells 3x 3x 3

    FEWALD:  cpu time    0.0028: real time    0.0028


--------------------------------------- Iteration      1(   1)  ---------------------------------------


    POTLOK:  cpu time    0.3468: real time    0.3508
    SETDIJ:  cpu time    0.0271: real time    0.0272
     EDDAV:  cpu time   20.0075: real time   20.1190
 BZINTS: Fermi energy: 25.698230;453.000000 electrons
         Band energy:1751.711141;  BLOECHL correction: -0.060124
       DOS:  cpu time    0.0035: real time    0.0035
    --------------------------------------------
      LOOP:  cpu time   20.3849: real time   20.5005

 eigenvalue-minimisations  :  5616
 total energy-change (2. order) : 0.5526130E+04  (-0.2107684E+05)
 number of electron     453.0000000 magnetization     103.4000000
 augmentation part      453.0000000 magnetization     103.4000000

 Free energy of the ion-electron system (eV)
  ---------------------------------------------------
  alpha Z        PSCENC =      1269.90711959
  Ewald energy   TEWEN  =    -29613.58295092
  -Hartree energ DENC   =    -23158.19194882
  -exchange      EXHF   =         0.00000000
  -V(xc)+E(xc)   XCENC  =      1710.13619222
  PAW double counting   =     44894.81802819   -47731.76596422
  entropy T*S    EENTRO =         0.00000000
  eigenvalues    EBANDS =      1751.71114099
  atomic energy  EATOM  =     56403.09886247
  Solvation  Ediel_sol  =         0.00000000
  ---------------------------------------------------
  free energy    TOTEN  =      5526.13047950 eV

  energy without entropy =     5526.13047950  energy(sigma->0) =     5526.13047950


--------------------------------------------------------------------------------------------------------




--------------------------------------- Iteration      1(   2)  ---------------------------------------


     EDDAV:  cpu time   18.6870: real time   18.7925
 BZINTS: Fermi energy: 11.448450;453.000000 electrons
         Band energy:***********;  BLOECHL correction: -0.021783
       DOS:  cpu time    0.0034: real time    0.0034
    --------------------------------------------
      LOOP:  cpu time   18.6903: real time   18.7959

 eigenvalue-minimisations  :  5168
 total energy-change (2. order) :-0.4864390E+04  (-0.4520981E+04)
 number of electron     453.0000000 magnetization     103.4000000
 augmentation part      453.0000000 magnetization     103.4000000

 Free energy of the ion-electron system (eV)
  ---------------------------------------------------
  alpha Z        PSCENC =      1269.90711959
  Ewald energy   TEWEN  =    -29613.58295092
  -Hartree energ DENC   =    -23158.19194882
  -exchange      EXHF   =         0.00000000
  -V(xc)+E(xc)   XCENC  =      1710.13619222
  PAW double counting   =     44894.81802819   -47731.76596422
  entropy T*S    EENTRO =         0.00000000
  eigenvalues    EBANDS =     -3112.67931783
  atomic energy  EATOM  =     56403.09886247
  Solvation  Ediel_sol  =         0.00000000
  ---------------------------------------------------
  free energy    TOTEN  =       661.74002069 eV

  energy without entropy =      661.74002069  energy(sigma->0) =      661.74002069


--------------------------------------------------------------------------------------------------------




--------------------------------------- Iteration      1(   3)  ---------------------------------------


     EDDAV:  cpu time   20.1154: real time   20.2264
 BZINTS: Fermi energy:  9.217970;453.000000 electrons
         Band energy:***********;  BLOECHL correction: -0.122382
       DOS:  cpu time    0.0029: real time    0.0029
    --------------------------------------------
      LOOP:  cpu time   20.1184: real time   20.2293

 eigenvalue-minimisations  :  5704
 total energy-change (2. order) :-0.8965175E+03  (-0.8031766E+03)
 number of electron     453.0000000 magnetization     103.4000000
 augmentation part      453.0000000 magnetization     103.4000000

 Free energy of the ion-electron system (eV)
  ---------------------------------------------------
  alpha Z        PSCENC =      1269.90711959
  Ewald energy   TEWEN  =    -29613.58295092
  -Hartree energ DENC   =    -23158.19194882
  -exchange      EXHF   =         0.00000000
  -V(xc)+E(xc)   XCENC  =      1710.13619222
  PAW double counting   =     44894.81802819   -47731.76596422
  entropy T*S    EENTRO =         0.00000000
  eigenvalues    EBANDS =     -4009.19684409
  atomic energy  EATOM  =     56403.09886247
  Solvation  Ediel_sol  =         0.00000000
  ---------------------------------------------------
  free energy    TOTEN  =      -234.77750557 eV

  energy without entropy =     -234.77750557  energy(sigma->0) =     -234.77750557


--------------------------------------------------------------------------------------------------------




--------------------------------------- Iteration      1(   4)  ---------------------------------------


     EDDAV:  cpu time   21.3312: real time   21.4492
 BZINTS: Fermi energy:  9.023704;453.000000 electrons
         Band energy:***********;  BLOECHL correction: -0.191247
       DOS:  cpu time    0.0033: real time    0.0033
    --------------------------------------------
      LOOP:  cpu time   21.3345: real time   21.4525

 eigenvalue-minimisations  :  6112
 total energy-change (2. order) :-0.8129370E+02  (-0.7943454E+02)
 number of electron     453.0000000 magnetization     103.4000000
 augmentation part      453.0000000 magnetization     103.4000000

 Free energy of the ion-electron system (eV)
  ---------------------------------------------------
  alpha Z        PSCENC =      1269.90711959
  Ewald energy   TEWEN  =    -29613.58295092
  -Hartree energ DENC   =    -23158.19194882
  -exchange      EXHF   =         0.00000000
  -V(xc)+E(xc)   XCENC  =      1710.13619222
  PAW double counting   =     44894.81802819   -47731.76596422
  entropy T*S    EENTRO =         0.00000000
  eigenvalues    EBANDS =     -4090.49053912
  atomic energy  EATOM  =     56403.09886247
  Solvation  Ediel_sol  =         0.00000000
  ---------------------------------------------------
  free energy    TOTEN  =      -316.07120060 eV

  energy without entropy =     -316.07120060  energy(sigma->0) =     -316.07120060


--------------------------------------------------------------------------------------------------------




--------------------------------------- Iteration      1(   5)  ---------------------------------------


     EDDAV:  cpu time   21.6456: real time   21.7674
 BZINTS: Fermi energy:  9.013036;453.000000 electrons
         Band energy:***********;  BLOECHL correction: -0.190821
       DOS:  cpu time    0.0031: real time    0.0032
    CHARGE:  cpu time    0.6703: real time    0.6734
    MIXING:  cpu time    0.0071: real time    0.0072
    --------------------------------------------
      LOOP:  cpu time   22.3262: real time   22.4511

 eigenvalue-minimisations  :  6232
 total energy-change (2. order) :-0.1937090E+01  (-0.1925137E+01)
 number of electron     452.9999928 magnetization      82.7469173
 augmentation part      110.7241032 magnetization      64.6035741

 Broyden mixing:
  rms(total) = 0.10193E+02    rms(broyden)= 0.10193E+02
  rms(prec ) = 0.11863E+02
  weight for this iteration     100.00

 Free energy of the ion-electron system (eV)
  ---------------------------------------------------
  alpha Z        PSCENC =      1269.90711959
  Ewald energy   TEWEN  =    -29613.58295092
  -Hartree energ DENC   =    -23158.19194882
  -exchange      EXHF   =         0.00000000
  -V(xc)+E(xc)   XCENC  =      1710.13619222
  PAW double counting   =     44894.81802819   -47731.76596422
  entropy T*S    EENTRO =         0.00000000
  eigenvalues    EBANDS =     -4092.42762915
  atomic energy  EATOM  =     56403.09886247
  Solvation  Ediel_sol  =         0.00000000
  ---------------------------------------------------
  free energy    TOTEN  =      -318.00829063 eV

  energy without entropy =     -318.00829063  energy(sigma->0) =     -318.00829063


--------------------------------------------------------------------------------------------------------




--------------------------------------- Iteration      1(   6)  ---------------------------------------


    POTLOK:  cpu time    0.3114: real time    0.3134
    SETDIJ:  cpu time    0.0275: real time    0.0276
     EDDAV:  cpu time   20.6547: real time   20.7652
 BZINTS: Fermi energy:  5.247236;453.000000 electrons
         Band energy:***********;  BLOECHL correction: -0.118806
       DOS:  cpu time    0.0032: real time    0.0032
    CHARGE:  cpu time    0.6702: real time    0.6730
    MIXING:  cpu time    0.0056: real time    0.0057
    --------------------------------------------
      LOOP:  cpu time   21.6726: real time   21.7881

 eigenvalue-minimisations  :  5824
 total energy-change (2. order) :-0.1412863E+03  (-0.5713091E+02)
 number of electron     452.9999896 magnetization      72.2295196
 augmentation part      169.0636496 magnetization      63.7663364

 Broyden mixing:
  rms(total) = 0.16163E+02    rms(broyden)= 0.16163E+02
  rms(prec ) = 0.19345E+02
  weight for this iteration     100.00

 eigenvalues of (default mixing * dielectric matrix)
  average eigenvalue GAMMA=   0.1345
  0.1345

 Free energy of the ion-electron system (eV)
  ---------------------------------------------------
  alpha Z        PSCENC =      1269.90711959
  Ewald energy   TEWEN  =    -29613.58295092
  -Hartree energ DENC   =    -21526.38468048
  -exchange      EXHF   =         0.00000000
  -V(xc)+E(xc)   XCENC  =      1650.47855726
  PAW double counting   =     49668.81016786   -52292.38429261
  entropy T*S    EENTRO =         0.00000000
  eigenvalues    EBANDS =     -6019.23742104
  atomic energy  EATOM  =     56403.09886247
  Solvation  Ediel_sol  =         0.00000000
  ---------------------------------------------------
  free energy    TOTEN  =      -459.29463787 eV

  energy without entropy =     -459.29463787  energy(sigma->0) =     -459.29463787


--------------------------------------------------------------------------------------------------------




--------------------------------------- Iteration      1(   7)  ---------------------------------------


    POTLOK:  cpu time    0.3085: real time    0.3102
    SETDIJ:  cpu time    0.0277: real time    0.0278
     EDDAV:  cpu time   21.3284: real time   21.4419
 BZINTS: Fermi energy:  5.940149;453.000000 electrons
         Band energy:***********;  BLOECHL correction: -0.203701
       DOS:  cpu time    0.0031: real time    0.0031
    CHARGE:  cpu time    0.6762: real time    0.6795
    MIXING:  cpu time    0.0065: real time    0.0065
    --------------------------------------------
      LOOP:  cpu time   22.3505: real time   22.4692

 eigenvalue-minimisations  :  6096
 total energy-change (2. order) : 0.1718040E+03  (-0.2688940E+02)
 number of electron     452.9999922 magnetization      49.2809133
 augmentation part      143.8561054 magnetization      45.1310835

 Broyden mixing:
  rms(total) = 0.60121E+01    rms(broyden)= 0.60099E+01
  rms(prec ) = 0.69670E+01
  weight for this iteration     100.00

 eigenvalues of (default mixing * dielectric matrix)
  average eigenvalue GAMMA=   0.5959
  0.5959  0.5959

 Free energy of the ion-electron system (eV)
  ---------------------------------------------------
  alpha Z        PSCENC =      1269.90711959
  Ewald energy   TEWEN  =    -29613.58295092
  -Hartree energ DENC   =    -22450.67506765
  -exchange      EXHF   =         0.00000000
  -V(xc)+E(xc)   XCENC  =      1668.98416896
  PAW double counting   =     52999.56558103   -55818.61752481
  entropy T*S    EENTRO =         0.00000000
  eigenvalues    EBANDS =     -4746.17085107
  atomic energy  EATOM  =     56403.09886247
  Solvation  Ediel_sol  =         0.00000000
  ---------------------------------------------------
  free energy    TOTEN  =      -287.49066240 eV

  energy without entropy =     -287.49066240  energy(sigma->0) =     -287.49066240


--------------------------------------------------------------------------------------------------------




--------------------------------------- Iteration      1(   8)  ---------------------------------------


    POTLOK:  cpu time    0.3144: real time    0.3164
    SETDIJ:  cpu time    0.0280: real time    0.0281
     EDDAV:  cpu time   22.3317: real time   22.4533
 BZINTS: Fermi energy:  6.755570;453.000000 electrons
         Band energy:***********;  BLOECHL correction: -0.360966
       DOS:  cpu time    0.0032: real time    0.0032
    CHARGE:  cpu time    0.6772: real time    0.6807
    MIXING:  cpu time    0.0077: real time    0.0077
    --------------------------------------------
      LOOP:  cpu time   23.3622: real time   23.4894

 eigenvalue-minimisations  :  6522
 total energy-change (2. order) :-0.1524676E+01  (-0.8693348E+01)
 number of electron     452.9999946 magnetization      24.9586773
 augmentation part      130.6890373 magnetization      23.5596910

 Broyden mixing:
  rms(total) = 0.30718E+01    rms(broyden)= 0.30697E+01
  rms(prec ) = 0.32844E+01
  weight for this iteration     100.00

 eigenvalues of (default mixing * dielectric matrix)
  average eigenvalue GAMMA=   0.7667
  1.2051  0.4500  0.6451

 Free energy of the ion-electron system (eV)
  ---------------------------------------------------
  alpha Z        PSCENC =      1269.90711959
  Ewald energy   TEWEN  =    -29613.58295092
  -Hartree energ DENC   =    -22790.97024826
  -exchange      EXHF   =         0.00000000
  -V(xc)+E(xc)   XCENC  =      1670.20435140
  PAW double counting   =     58281.34561340   -61136.42848282
  entropy T*S    EENTRO =         0.00000000
  eigenvalues    EBANDS =     -4372.58960355
  atomic energy  EATOM  =     56403.09886247
  Solvation  Ediel_sol  =         0.00000000
  ---------------------------------------------------
  free energy    TOTEN  =      -289.01533869 eV

  energy without entropy =     -289.01533869  energy(sigma->0) =     -289.01533869


--------------------------------------------------------------------------------------------------------




--------------------------------------- Iteration      1(   9)  ---------------------------------------


    POTLOK:  cpu time    0.3301: real time    0.3322
    SETDIJ:  cpu time    0.0272: real time    0.0273
     EDDAV:  cpu time   22.1454: real time   22.2668
 BZINTS: Fermi energy:  6.776474;453.000000 electrons
         Band energy:***********;  BLOECHL correction: -0.016390
       DOS:  cpu time    0.0032: real time    0.0032
    CHARGE:  cpu time    0.6775: real time    0.6807
    MIXING:  cpu time    0.0079: real time    0.0080
    --------------------------------------------
      LOOP:  cpu time   23.1913: real time   23.3182

 eigenvalue-minimisations  :  6432
 total energy-change (2. order) :-0.2246890E+02  (-0.5309499E+01)
 number of electron     452.9999885 magnetization      15.8254439
 augmentation part      129.1910513 magnetization      12.8445689

 Broyden mixing:
  rms(total) = 0.63110E+01    rms(broyden)= 0.63095E+01
  rms(prec ) = 0.91134E+01
  weight for this iteration     100.00

 eigenvalues of (default mixing * dielectric matrix)
  average eigenvalue GAMMA=   0.6948
  1.4645  0.5241  0.4827  0.3078

 Free energy of the ion-electron system (eV)
  ---------------------------------------------------
  alpha Z        PSCENC =      1269.90711959
  Ewald energy   TEWEN  =    -29613.58295092
  -Hartree energ DENC   =    -22758.34708615
  -exchange      EXHF   =         0.00000000
  -V(xc)+E(xc)   XCENC  =      1664.65775927
  PAW double counting   =     62614.26208782   -65453.93051523
  entropy T*S    EENTRO =         0.00000000
  eigenvalues    EBANDS =     -4437.54951892
  atomic energy  EATOM  =     56403.09886247
  Solvation  Ediel_sol  =         0.00000000
  ---------------------------------------------------
  free energy    TOTEN  =      -311.48424207 eV

  energy without entropy =     -311.48424207  energy(sigma->0) =     -311.48424207


--------------------------------------------------------------------------------------------------------




--------------------------------------- Iteration      1(  10)  ---------------------------------------


    POTLOK:  cpu time    0.3150: real time    0.3169
    SETDIJ:  cpu time    0.0271: real time    0.0272
     EDDAV:  cpu time   20.8350: real time   20.9491
 BZINTS: Fermi energy:  6.737358;453.000000 electrons
         Band energy:***********;  BLOECHL correction: -0.360951
       DOS:  cpu time    0.0028: real time    0.0028
    CHARGE:  cpu time    0.6899: real time    0.6933
    MIXING:  cpu time    0.0078: real time    0.0078
    --------------------------------------------
      LOOP:  cpu time   21.8776: real time   21.9972

 eigenvalue-minimisations  :  5960
 total energy-change (2. order) : 0.1296387E+02  (-0.3140280E+01)
 number of electron     452.9999946 magnetization      12.8228981
 augmentation part      133.6736472 magnetization      10.5964411

 Broyden mixing:
  rms(total) = 0.21483E+01    rms(broyden)= 0.21453E+01
  rms(prec ) = 0.29040E+01
  weight for this iteration     100.00

 eigenvalues of (default mixing * dielectric matrix)
  average eigenvalue GAMMA=   0.6794
  1.5553  0.6766  0.5086  0.5086  0.1479

 Free energy of the ion-electron system (eV)
  ---------------------------------------------------
  alpha Z        PSCENC =      1269.90711959
  Ewald energy   TEWEN  =    -29613.58295092
  -Hartree energ DENC   =    -22735.59359915
  -exchange      EXHF   =         0.00000000
  -V(xc)+E(xc)   XCENC  =      1663.10682435
  PAW double counting   =     64175.81034534   -67012.79325639
  entropy T*S    EENTRO =         0.00000000
  eigenvalues    EBANDS =     -4448.47372209
  atomic energy  EATOM  =     56403.09886247
  Solvation  Ediel_sol  =         0.00000000
  ---------------------------------------------------
  free energy    TOTEN  =      -298.52037678 eV

  energy without entropy =     -298.52037678  energy(sigma->0) =     -298.52037678


--------------------------------------------------------------------------------------------------------




--------------------------------------- Iteration      1(  11)  ---------------------------------------


    POTLOK:  cpu time    0.3216: real time    0.3238
    SETDIJ:  cpu time    0.0277: real time    0.0279
     EDDAV:  cpu time   21.7992: real time   21.9224
 BZINTS: Fermi energy:  6.776006;453.000000 electrons
         Band energy:***********;  BLOECHL correction: -0.096466
       DOS:  cpu time    0.0029: real time    0.0029
    CHARGE:  cpu time    0.7029: real time    0.7064
    MIXING:  cpu time    0.0086: real time    0.0086
    --------------------------------------------
      LOOP:  cpu time   22.8630: real time   22.9919

 eigenvalue-minimisations  :  6336
 total energy-change (2. order) :-0.2944760E+01  (-0.1606771E+01)
 number of electron     452.9999943 magnetization      11.1264200
 augmentation part      132.2727536 magnetization       9.5301987

 Broyden mixing:
  rms(total) = 0.24719E+01    rms(broyden)= 0.24704E+01
  rms(prec ) = 0.35525E+01
  weight for this iteration     100.00

 eigenvalues of (default mixing * dielectric matrix)
  average eigenvalue GAMMA=   0.6201
  1.5696  0.7302  0.5130  0.5130  0.2499  0.1449

 Free energy of the ion-electron system (eV)
  ---------------------------------------------------
  alpha Z        PSCENC =      1269.90711959
  Ewald energy   TEWEN  =    -29613.58295092
  -Hartree energ DENC   =    -22773.12218121
  -exchange      EXHF   =         0.00000000
  -V(xc)+E(xc)   XCENC  =      1663.50782989
  PAW double counting   =     64120.64234916   -66965.20300787
  entropy T*S    EENTRO =         0.00000000
  eigenvalues    EBANDS =     -4406.71315765
  atomic energy  EATOM  =     56403.09886247
  Solvation  Ediel_sol  =         0.00000000
  ---------------------------------------------------
  free energy    TOTEN  =      -301.46513654 eV

  energy without entropy =     -301.46513654  energy(sigma->0) =     -301.46513654


--------------------------------------------------------------------------------------------------------




--------------------------------------- Iteration      1(  12)  ---------------------------------------


    POTLOK:  cpu time    0.3201: real time    0.3222
    SETDIJ:  cpu time    0.0272: real time    0.0273
     EDDAV:  cpu time   20.7140: real time   20.8254
 BZINTS: Fermi energy:  6.940997;453.000000 electrons
         Band energy:***********;  BLOECHL correction: -0.486696
       DOS:  cpu time    0.0031: real time    0.0031
    CHARGE:  cpu time    0.7009: real time    0.7042
    MIXING:  cpu time    0.0104: real time    0.0105
    --------------------------------------------
      LOOP:  cpu time   21.7757: real time   21.8927

 eigenvalue-minimisations  :  5952
 total energy-change (2. order) : 0.2617976E+01  (-0.9533216E+00)
 number of electron     452.9999937 magnetization       8.5030377
 augmentation part      132.1741281 magnetization       6.9443935

 Broyden mixing:
  rms(total) = 0.82855E+00    rms(broyden)= 0.82699E+00
  rms(prec ) = 0.10495E+01
  weight for this iteration     100.00

 eigenvalues of (default mixing * dielectric matrix)
  average eigenvalue GAMMA=   0.6687
  1.3836  1.3836  0.5350  0.5350  0.5280  0.1670  0.1488

 Free energy of the ion-electron system (eV)
  ---------------------------------------------------
  alpha Z        PSCENC =      1269.90711959
  Ewald energy   TEWEN  =    -29613.58295092
  -Hartree energ DENC   =    -22786.85393511
  -exchange      EXHF   =         0.00000000
  -V(xc)+E(xc)   XCENC  =      1663.79388893
  PAW double counting   =     64015.72335143   -66863.41488696
  entropy T*S    EENTRO =         0.00000000
  eigenvalues    EBANDS =     -4387.51861039
  atomic energy  EATOM  =     56403.09886247
  Solvation  Ediel_sol  =         0.00000000
  ---------------------------------------------------
  free energy    TOTEN  =      -298.84716096 eV

  energy without entropy =     -298.84716096  energy(sigma->0) =     -298.84716096


--------------------------------------------------------------------------------------------------------




--------------------------------------- Iteration      1(  13)  ---------------------------------------


    POTLOK:  cpu time    0.3383: real time    0.3406
    SETDIJ:  cpu time    0.0266: real time    0.0267
     EDDAV:  cpu time   21.0377: real time   21.1525
 BZINTS: Fermi energy:  6.910096;453.000000 electrons
         Band energy:***********;  BLOECHL correction: -0.399577
       DOS:  cpu time    0.0031: real time    0.0031
    CHARGE:  cpu time    0.7025: real time    0.7059
    MIXING:  cpu time    0.0096: real time    0.0097
    --------------------------------------------
      LOOP:  cpu time   22.1177: real time   22.2384

 eigenvalue-minimisations  :  6056
 total energy-change (2. order) :-0.6173010E+00  (-0.3102119E+00)
 number of electron     452.9999934 magnetization       7.3213145
 augmentation part      132.1822504 magnetization       6.1854232

 Broyden mixing:
  rms(total) = 0.95729E+00    rms(broyden)= 0.95689E+00
  rms(prec ) = 0.12897E+01
  weight for this iteration     100.00

 eigenvalues of (default mixing * dielectric matrix)
  average eigenvalue GAMMA=   0.6309
  1.4454  1.4454  0.5465  0.5465  0.5041  0.2586  0.1502  0.1502

 Free energy of the ion-electron system (eV)
  ---------------------------------------------------
  alpha Z        PSCENC =      1269.90711959
  Ewald energy   TEWEN  =    -29613.58295092
  -Hartree energ DENC   =    -22791.16148818
  -exchange      EXHF   =         0.00000000
  -V(xc)+E(xc)   XCENC  =      1663.85750954
  PAW double counting   =     63782.02720484   -66629.27428626
  entropy T*S    EENTRO =         0.00000000
  eigenvalues    EBANDS =     -4384.33643303
  atomic energy  EATOM  =     56403.09886247
  Solvation  Ediel_sol  =         0.00000000
  ---------------------------------------------------
  free energy    TOTEN  =      -299.46446194 eV

  energy without entropy =     -299.46446194  energy(sigma->0) =     -299.46446194


--------------------------------------------------------------------------------------------------------




--------------------------------------- Iteration      1(  14)  ---------------------------------------


    POTLOK:  cpu time    0.3312: real time    0.3334
    SETDIJ:  cpu time    0.0269: real time    0.0270
     EDDAV:  cpu time   20.6511: real time   20.7636
 BZINTS: Fermi energy:  6.937578;453.000000 electrons
         Band energy:***********;  BLOECHL correction: -0.496490
       DOS:  cpu time    0.0032: real time    0.0032
    CHARGE:  cpu time    0.6998: real time    0.7033
    MIXING:  cpu time    0.0085: real time    0.0086
    --------------------------------------------
      LOOP:  cpu time   21.7207: real time   21.8391

 eigenvalue-minimisations  :  5920
 total energy-change (2. order) : 0.1576474E+00  (-0.1726047E+00)
 number of electron     452.9999942 magnetization       4.7759417
 augmentation part      132.2576282 magnetization       3.6617875

 Broyden mixing:
  rms(total) = 0.49615E+00    rms(broyden)= 0.49568E+00
  rms(prec ) = 0.62128E+00
  weight for this iteration     100.00

 eigenvalues of (default mixing * dielectric matrix)
  average eigenvalue GAMMA=   0.6953
  1.6885  1.6885  0.7003  0.7003  0.5042  0.5042  0.1699  0.1561  0.1455

 Free energy of the ion-electron system (eV)
  ---------------------------------------------------
  alpha Z        PSCENC =      1269.90711959
  Ewald energy   TEWEN  =    -29613.58295092
  -Hartree energ DENC   =    -22793.39556119
  -exchange      EXHF   =         0.00000000
  -V(xc)+E(xc)   XCENC  =      1663.91791782
  PAW double counting   =     63671.90862212   -66518.65652863
  entropy T*S    EENTRO =         0.00000000
  eigenvalues    EBANDS =     -4382.50429584
  atomic energy  EATOM  =     56403.09886247
  Solvation  Ediel_sol  =         0.00000000
  ---------------------------------------------------
  free energy    TOTEN  =      -299.30681458 eV

  energy without entropy =     -299.30681458  energy(sigma->0) =     -299.30681458


--------------------------------------------------------------------------------------------------------




--------------------------------------- Iteration      1(  15)  ---------------------------------------


    POTLOK:  cpu time    0.3267: real time    0.3287
    SETDIJ:  cpu time    0.0271: real time    0.0272
     EDDAV:  cpu time   20.7673: real time   20.8774
 BZINTS: Fermi energy:  6.929444;453.000000 electrons
         Band energy:***********;  BLOECHL correction: -0.431371
       DOS:  cpu time    0.0032: real time    0.0032
    CHARGE:  cpu time    0.7008: real time    0.7040
    MIXING:  cpu time    0.0094: real time    0.0095
    --------------------------------------------
      LOOP:  cpu time   21.8344: real time   21.9500

 eigenvalue-minimisations  :  5952
 total energy-change (2. order) :-0.3030857E+00  (-0.8554645E-01)
 number of electron     452.9999934 magnetization       3.3585448
 augmentation part      132.2652246 magnetization       2.4712527

 Broyden mixing:
  rms(total) = 0.70860E+00    rms(broyden)= 0.70835E+00
  rms(prec ) = 0.99833E+00
  weight for this iteration     100.00

 eigenvalues of (default mixing * dielectric matrix)
  average eigenvalue GAMMA=   0.6793
  1.7817  1.7817  0.7594  0.7594  0.5094  0.5094  0.2031  0.1939  0.1474  0.1474

 Free energy of the ion-electron system (eV)
  ---------------------------------------------------
  alpha Z        PSCENC =      1269.90711959
  Ewald energy   TEWEN  =    -29613.58295092
  -Hartree energ DENC   =    -22803.12552421
  -exchange      EXHF   =         0.00000000
  -V(xc)+E(xc)   XCENC  =      1664.18763185
  PAW double counting   =     63431.59568446   -66277.26915773
  entropy T*S    EENTRO =         0.00000000
  eigenvalues    EBANDS =     -4374.42156575
  atomic energy  EATOM  =     56403.09886247
  Solvation  Ediel_sol  =         0.00000000
  ---------------------------------------------------
  free energy    TOTEN  =      -299.60990024 eV

  energy without entropy =     -299.60990024  energy(sigma->0) =     -299.60990024


--------------------------------------------------------------------------------------------------------




--------------------------------------- Iteration      1(  16)  ---------------------------------------


    POTLOK:  cpu time    0.3249: real time    0.3270
    SETDIJ:  cpu time    0.0272: real time    0.0273
     EDDAV:  cpu time   20.5227: real time   20.6415
 BZINTS: Fermi energy:  6.961496;453.000000 electrons
         Band energy:***********;  BLOECHL correction: -0.507642
       DOS:  cpu time    0.0030: real time    0.0030
    CHARGE:  cpu time    0.6997: real time    0.7031
    MIXING:  cpu time    0.0097: real time    0.0097
    --------------------------------------------
      LOOP:  cpu time   21.5872: real time   21.7116

 eigenvalue-minimisations  :  5928
 total energy-change (2. order) : 0.1731467E+00  (-0.6442302E-01)
 number of electron     452.9999939 magnetization       1.9808602
 augmentation part      132.1940884 magnetization       1.3759468

 Broyden mixing:
  rms(total) = 0.22002E+00    rms(broyden)= 0.21952E+00
  rms(prec ) = 0.26410E+00
  weight for this iteration     100.00

 eigenvalues of (default mixing * dielectric matrix)
  average eigenvalue GAMMA=   0.7140
  2.2835  1.5209  1.0903  0.7649  0.5160  0.5160  0.5134  0.1894  0.1634  0.1481
  0.1481

 Free energy of the ion-electron system (eV)
  ---------------------------------------------------
  alpha Z        PSCENC =      1269.90711959
  Ewald energy   TEWEN  =    -29613.58295092
  -Hartree energ DENC   =    -22809.72943198
  -exchange      EXHF   =         0.00000000
  -V(xc)+E(xc)   XCENC  =      1664.37624879
  PAW double counting   =     63337.31265696   -66182.40750179
  entropy T*S    EENTRO =         0.00000000
  eigenvalues    EBANDS =     -4368.41175664
  atomic energy  EATOM  =     56403.09886247
  Solvation  Ediel_sol  =         0.00000000
  ---------------------------------------------------
  free energy    TOTEN  =      -299.43675351 eV

  energy without entropy =     -299.43675351  energy(sigma->0) =     -299.43675351


--------------------------------------------------------------------------------------------------------




--------------------------------------- Iteration      1(  17)  ---------------------------------------


    POTLOK:  cpu time    0.3092: real time    0.3111
    SETDIJ:  cpu time    0.0271: real time    0.0273
     EDDAV:  cpu time   19.7559: real time   19.8630
 BZINTS: Fermi energy:  6.972072;453.000000 electrons
         Band energy:***********;  BLOECHL correction: -0.517522
       DOS:  cpu time    0.0032: real time    0.0032
    CHARGE:  cpu time    0.6937: real time    0.6969
    MIXING:  cpu time    0.0094: real time    0.0094
    --------------------------------------------
      LOOP:  cpu time   20.7985: real time   20.9109

 eigenvalue-minimisations  :  5592
 total energy-change (2. order) :-0.2286137E-01  (-0.8997807E-02)
 number of electron     452.9999938 magnetization       1.6718834
 augmentation part      132.0997093 magnetization       1.2420737

 Broyden mixing:
  rms(total) = 0.11761E+00    rms(broyden)= 0.11754E+00
  rms(prec ) = 0.14488E+00
  weight for this iteration     100.00

 eigenvalues of (default mixing * dielectric matrix)
  average eigenvalue GAMMA=   0.7446
  2.5044  1.2761  1.2761  0.9964  0.5941  0.5941  0.5223  0.5223  0.1864  0.1682
  0.1476  0.1476

 Free energy of the ion-electron system (eV)
  ---------------------------------------------------
  alpha Z        PSCENC =      1269.90711959
  Ewald energy   TEWEN  =    -29613.58295092
  -Hartree energ DENC   =    -22814.94418848
  -exchange      EXHF   =         0.00000000
  -V(xc)+E(xc)   XCENC  =      1664.45815756
  PAW double counting   =     63396.95070784   -66241.25032382
  entropy T*S    EENTRO =         0.00000000
  eigenvalues    EBANDS =     -4364.09699914
  atomic energy  EATOM  =     56403.09886247
  Solvation  Ediel_sol  =         0.00000000
  ---------------------------------------------------
  free energy    TOTEN  =      -299.45961489 eV

  energy without entropy =     -299.45961489  energy(sigma->0) =     -299.45961489


--------------------------------------------------------------------------------------------------------




--------------------------------------- Iteration      1(  18)  ---------------------------------------


    POTLOK:  cpu time    0.3082: real time    0.3100
    SETDIJ:  cpu time    0.0268: real time    0.0269
     EDDAV:  cpu time   21.9201: real time   22.0380
 BZINTS: Fermi energy:  6.973566;453.000000 electrons
         Band energy:***********;  BLOECHL correction: -0.521026
       DOS:  cpu time    0.0032: real time    0.0032
    CHARGE:  cpu time    0.7112: real time    0.7148
    MIXING:  cpu time    0.0105: real time    0.0106
    --------------------------------------------
      LOOP:  cpu time   22.9800: real time   23.1036

 eigenvalue-minimisations  :  6440
 total energy-change (2. order) :-0.6647950E-02  (-0.1577019E-02)
 number of electron     452.9999938 magnetization       1.3601129
 augmentation part      132.0715406 magnetization       0.9949078

 Broyden mixing:
  rms(total) = 0.87101E-01    rms(broyden)= 0.87031E-01
  rms(prec ) = 0.10238E+00
  weight for this iteration     100.00

 eigenvalues of (default mixing * dielectric matrix)
  average eigenvalue GAMMA=   0.8293
  2.7977  1.5967  1.5967  1.1018  0.7398  0.7398  0.5160  0.5160  0.5266  0.1867
  0.1676  0.1476  0.1476

 Free energy of the ion-electron system (eV)
  ---------------------------------------------------
  alpha Z        PSCENC =      1269.90711959
  Ewald energy   TEWEN  =    -29613.58295092
  -Hartree energ DENC   =    -22815.10176768
  -exchange      EXHF   =         0.00000000
  -V(xc)+E(xc)   XCENC  =      1664.42742878
  PAW double counting   =     63441.09199484   -66285.09758039
  entropy T*S    EENTRO =         0.00000000
  eigenvalues    EBANDS =     -4364.20936953
  atomic energy  EATOM  =     56403.09886247
  Solvation  Ediel_sol  =         0.00000000
  ---------------------------------------------------
  free energy    TOTEN  =      -299.46626284 eV

  energy without entropy =     -299.46626284  energy(sigma->0) =     -299.46626284


--------------------------------------------------------------------------------------------------------




--------------------------------------- Iteration      1(  19)  ---------------------------------------


    POTLOK:  cpu time    0.3189: real time    0.3207
    SETDIJ:  cpu time    0.0274: real time    0.0275
     EDDAV:  cpu time   22.8490: real time   22.9749
 BZINTS: Fermi energy:  6.975495;453.000000 electrons
         Band energy:***********;  BLOECHL correction: -0.523987
       DOS:  cpu time    0.0032: real time    0.0033
    CHARGE:  cpu time    0.7156: real time    0.7192
    MIXING:  cpu time    0.0111: real time    0.0112
    --------------------------------------------
      LOOP:  cpu time   23.9252: real time   24.0568

 eigenvalue-minimisations  :  6776
 total energy-change (2. order) :-0.5711962E-02  (-0.4419287E-03)
 number of electron     452.9999938 magnetization       1.0553880
 augmentation part      132.0462507 magnetization       0.7575537

 Broyden mixing:
  rms(total) = 0.58781E-01    rms(broyden)= 0.58682E-01
  rms(prec ) = 0.68023E-01
  weight for this iteration     100.00

 eigenvalues of (default mixing * dielectric matrix)
  average eigenvalue GAMMA=   0.8846
  3.2458  1.7615  1.7615  1.0915  0.8478  0.8478  0.5245  0.5245  0.5650  0.5650
  0.1867  0.1676  0.1476  0.1476

 Free energy of the ion-electron system (eV)
  ---------------------------------------------------
  alpha Z        PSCENC =      1269.90711959
  Ewald energy   TEWEN  =    -29613.58295092
  -Hartree energ DENC   =    -22815.56071249
  -exchange      EXHF   =         0.00000000
  -V(xc)+E(xc)   XCENC  =      1664.42270669
  PAW double counting   =     63435.83725082   -66279.58014474
  entropy T*S    EENTRO =         0.00000000
  eigenvalues    EBANDS =     -4364.01410622
  atomic energy  EATOM  =     56403.09886247
  Solvation  Ediel_sol  =         0.00000000
  ---------------------------------------------------
  free energy    TOTEN  =      -299.47197480 eV

  energy without entropy =     -299.47197480  energy(sigma->0) =     -299.47197480


--------------------------------------------------------------------------------------------------------




--------------------------------------- Iteration      1(  20)  ---------------------------------------


    POTLOK:  cpu time    0.3184: real time    0.3204
    SETDIJ:  cpu time    0.0277: real time    0.0278
     EDDAV:  cpu time   22.1817: real time   22.3037
 BZINTS: Fermi energy:  6.978436;453.000000 electrons
         Band energy:***********;  BLOECHL correction: -0.525863
       DOS:  cpu time    0.0031: real time    0.0031
    CHARGE:  cpu time    0.7142: real time    0.7177
    MIXING:  cpu time    0.0117: real time    0.0118
    --------------------------------------------
      LOOP:  cpu time   23.2568: real time   23.3846

 eigenvalue-minimisations  :  6544
 total energy-change (2. order) :-0.3586865E-02  (-0.2841483E-03)
 number of electron     452.9999938 magnetization       0.8185406
 augmentation part      132.0160650 magnetization       0.5755144

 Broyden mixing:
  rms(total) = 0.37961E-01    rms(broyden)= 0.37854E-01
  rms(prec ) = 0.45230E-01
  weight for this iteration     100.00

 eigenvalues of (default mixing * dielectric matrix)
  average eigenvalue GAMMA=   0.9266
  3.4919  1.7436  1.7436  1.4158  0.9758  0.9758  0.6566  0.6566  0.5198  0.5198
  0.5507  0.1867  0.1676  0.1476  0.1476

 Free energy of the ion-electron system (eV)
  ---------------------------------------------------
  alpha Z        PSCENC =      1269.90711959
  Ewald energy   TEWEN  =    -29613.58295092
  -Hartree energ DENC   =    -22816.56177258
  -exchange      EXHF   =         0.00000000
  -V(xc)+E(xc)   XCENC  =      1664.44516308
  PAW double counting   =     63397.72236848   -66241.34547943
  entropy T*S    EENTRO =         0.00000000
  eigenvalues    EBANDS =     -4363.15887236
  atomic energy  EATOM  =     56403.09886247
  Solvation  Ediel_sol  =         0.00000000
  ---------------------------------------------------
  free energy    TOTEN  =      -299.47556167 eV

  energy without entropy =     -299.47556167  energy(sigma->0) =     -299.47556167


--------------------------------------------------------------------------------------------------------




--------------------------------------- Iteration      1(  21)  ---------------------------------------


    POTLOK:  cpu time    0.3155: real time    0.3174
    SETDIJ:  cpu time    0.0273: real time    0.0274
     EDDAV:  cpu time   23.4901: real time   23.6176
 BZINTS: Fermi energy:  6.980070;453.000000 electrons
         Band energy:***********;  BLOECHL correction: -0.526457
       DOS:  cpu time    0.0032: real time    0.0032
    CHARGE:  cpu time    0.7137: real time    0.7174
    MIXING:  cpu time    0.0113: real time    0.0114
    --------------------------------------------
      LOOP:  cpu time   24.5611: real time   24.6944

 eigenvalue-minimisations  :  6960
 total energy-change (2. order) :-0.1374265E-02  (-0.1224977E-03)
 number of electron     452.9999938 magnetization       0.6274724
 augmentation part      131.9988016 magnetization       0.4223509

 Broyden mixing:
  rms(total) = 0.21412E-01    rms(broyden)= 0.21322E-01
  rms(prec ) = 0.24314E-01
  weight for this iteration     100.00

 eigenvalues of (default mixing * dielectric matrix)
  average eigenvalue GAMMA=   0.9657
  3.7885  1.9200  1.9200  1.4817  0.9150  0.9150  0.8817  0.7962  0.5211  0.5211
  0.5709  0.5709  0.1867  0.1676  0.1476  0.1476

 Free energy of the ion-electron system (eV)
  ---------------------------------------------------
[...]
 -----------------------------------------------------------------------------------
      0.00637     -0.00032     -0.00032         0.008738     -0.001054     -0.001054
      2.38233      7.19784      7.19784         0.004310     -0.004153     -0.004153
      4.80168     -0.00032      4.79500         0.001054     -0.001054     -0.008738
      4.80168      4.79500     -0.00032         0.001054     -0.008738     -0.001054
      7.20625      2.41903      7.19784         0.004153     -0.004310     -0.004153
      7.20625      7.19784      2.41903         0.004153     -0.004153     -0.004310
      1.66546      3.13590      3.13590        -0.296770      0.296770      0.296770
      1.20801      1.18843      6.02726         0.004240     -0.011201     -0.020612
      8.37863      8.38671      6.02546         0.001936     -0.004840     -0.001936
      3.62021      1.18115      8.42377         0.002560     -0.002560     -0.006793
      6.00244      8.40164      8.40164         0.001364     -0.001364     -0.001364
      1.22053      3.58083      8.36297         0.000355     -0.000355      0.001446
      8.37863      6.02546      8.38671         0.001936     -0.001936     -0.004840
      3.61293      3.59336      6.02726         0.011201     -0.004240     -0.020612
      6.01738      6.02546      6.02546         0.004840     -0.001936     -0.001936
      3.62021      8.42377      1.18115         0.002560     -0.006793     -0.002560
      3.61293      6.02726      3.59336         0.011201     -0.020612     -0.004240
      1.20801      6.02726      1.18843         0.004240     -0.020612     -0.011201
      1.22053      8.36297      3.58083         0.000355      0.001446     -0.000355
      8.37683      3.59336      1.18843         0.020612     -0.004240     -0.011201
      8.37683      1.18843      3.59336         0.020612     -0.011201     -0.004240
      5.98032      1.18115      1.18115         0.006793     -0.002560     -0.002560
      6.04112      3.58083      3.58083        -0.001446     -0.000355     -0.000355
      1.01942      1.06227      3.78194         0.025975      0.019379     -0.025975
      6.12763      8.27646      6.13897        -0.000162      0.000162     -0.003040
      3.74298      1.05838      1.05838         0.018197     -0.018197     -0.018197
      8.26512      8.27646      8.27646         0.003040      0.000162      0.000162
      1.01942      3.78194      1.06227         0.025975     -0.025975      0.019379
      6.12763      6.13897      8.27646        -0.000162     -0.003040      0.000162
      3.73909      3.78194      3.78194        -0.019379     -0.025975     -0.025975
      8.24267      6.16141      6.16141         0.004778     -0.004778     -0.004778
      1.05584      5.86486      8.50121        -0.001799     -0.004215     -0.001260
      3.47639      8.28117      3.44939         0.000250     -0.013011      0.003704
      1.05584      8.50121      5.86486        -0.001799     -0.001260     -0.004215
      3.47835      6.13355      1.32301         0.003933     -0.009588     -0.003933
      3.73585      8.52749      8.52749         0.001200      0.000293      0.000293
      1.37391      6.08354      3.42745         0.006935     -0.038034     -0.006935
      3.72083      5.88123      5.88123         0.003995     -0.010628     -0.010628
      1.35197      8.28117      1.32497        -0.003704     -0.013011     -0.000250
      5.87659      1.06551      8.52749        -0.000293     -0.001200      0.000293
      3.47835      1.32301      6.13355         0.003933     -0.003933     -0.009588
      8.53923      3.74553      8.50121         0.004215      0.001799     -0.001260
      1.37391      3.42745      6.08354         0.006935     -0.006935     -0.038034
      8.52286      1.08053      5.88123         0.010628     -0.003995     -0.010628
      1.35197      1.32497      8.28117        -0.003704     -0.000250     -0.013011
      5.90288      3.74553      5.86486         0.001260      0.001799     -0.004215
      3.47639      3.44939      8.28117         0.000250      0.003704     -0.013011
      5.90288      5.86486      3.74553         0.001260     -0.004215      0.001799
      8.52286      5.88123      1.08053         0.010628     -0.010628     -0.003995
      5.87659      8.52749      1.06551        -0.000293      0.000293     -0.001200
      8.53923      8.50121      3.74553         0.004215     -0.001260      0.001799
      8.32055      3.42745      3.42745         0.038034     -0.006935     -0.006935
      8.27053      1.32301      1.32301         0.009588     -0.003933     -0.003933
      6.12292      1.32497      3.44939         0.013011     -0.000250      0.003704
      6.12292      3.44939      1.32497         0.013011      0.003704     -0.000250
 -----------------------------------------------------------------------------------
    total drift:                               -0.010228      0.010228      0.010228


--------------------------------------------------------------------------------------------------------



  FREE ENERGIE OF THE ION-ELECTRON SYSTEM (eV)
  ---------------------------------------------------
  free  energy   TOTEN  =      -299.64222408 eV

  energy  without entropy=     -299.64222408  energy(sigma->0) =     -299.64222408
 
 d Force =-0.3858084E-03[-0.550E-03,-0.222E-03]  d Energy =-0.1953439E-03-0.190E-03
 d Force =-0.1044066E+00[-0.106E+00,-0.103E+00]  d Ewald  =-0.1044005E+00-0.607E-05


--------------------------------------------------------------------------------------------------------


    POTLOK:  cpu time    0.3039: real time    0.3053


--------------------------------------------------------------------------------------------------------


  energy of chain is (eV)         0.000000 for this image         0.000000
  tangential force (eV/A)         0.554631
  left and right image   0.435731  0.429913 A
 TANGENT                                        CHAIN-FORCE (eV/Angst)
 -----------------------------------------------------------------------------------
      0.00990      0.00260      0.00260        -0.005493     -0.001440     -0.001440
     -0.00378     -0.00266     -0.00266         0.002094      0.001473      0.001473
     -0.00260      0.00260     -0.00990         0.001440     -0.001440      0.005493
     -0.00260     -0.00990      0.00260         0.001440      0.005493     -0.001440
      0.00266      0.00378     -0.00266        -0.001473     -0.002094      0.001473
      0.00266     -0.00266      0.00378        -0.001473      0.001473     -0.002094
     -0.56426      0.56426      0.56426         0.312955     -0.312955     -0.312955
     -0.00493     -0.01066     -0.02192         0.002735      0.005912      0.012156
      0.00277     -0.00009     -0.00277        -0.001538      0.000049      0.001538
      0.01324     -0.01324     -0.00769        -0.007341      0.007341      0.004264
      0.00459     -0.00459     -0.00459        -0.002545      0.002545      0.002545
     -0.00393      0.00393      0.00708         0.002181     -0.002181     -0.003927
      0.00277     -0.00277     -0.00009        -0.001538      0.001538      0.000049
      0.01066      0.00493     -0.02192        -0.005912     -0.002735      0.012156
      0.00009     -0.00277     -0.00277        -0.000049      0.001538      0.001538
      0.01324     -0.00769     -0.01324        -0.007341      0.004264      0.007341
      0.01066     -0.02192      0.00493        -0.005912      0.012156     -0.002735
     -0.00493     -0.02192     -0.01066         0.002735      0.012156      0.005912
     -0.00393      0.00708      0.00393         0.002181     -0.003927     -0.002181
      0.02192      0.00493     -0.01066        -0.012156     -0.002735      0.005912
      0.02192     -0.01066      0.00493        -0.012156      0.005912     -0.002735
      0.00769     -0.01324     -0.01324        -0.004264      0.007341      0.007341
     -0.00708      0.00393      0.00393         0.003927     -0.002181     -0.002181
      0.02074      0.04994     -0.02074        -0.011503     -0.027699      0.011503
      0.00146     -0.00146     -0.00624        -0.000809      0.000809      0.003460
      0.03932     -0.03932     -0.03932        -0.021807      0.021807      0.021807
      0.00624     -0.00146     -0.00146        -0.003460      0.000809      0.000809
      0.02074     -0.02074      0.04994        -0.011503      0.011503     -0.027699
      0.00146     -0.00624     -0.00146        -0.000809      0.003460      0.000809
     -0.04994     -0.02074     -0.02074         0.027699      0.011503      0.011503
      0.00250     -0.00250     -0.00250        -0.001388      0.001388      0.001388
      0.00141     -0.00892      0.00722        -0.000780      0.004949     -0.004004
     -0.00090     -0.00595     -0.00298         0.000499      0.003301      0.001655
      0.00141      0.00722     -0.00892        -0.000780     -0.004004      0.004949
     -0.00032     -0.01393      0.00032         0.000178      0.007724     -0.000178
      0.00591     -0.00636     -0.00636        -0.003278      0.003525      0.003525
      0.00086     -0.08581     -0.00086        -0.000478      0.047592      0.000478
      0.00351     -0.00492     -0.00492        -0.001944      0.002731      0.002731
      0.00298     -0.00595      0.00090        -0.001655      0.003301     -0.000499
      0.00636     -0.00591     -0.00636        -0.003525      0.003278      0.003525
     -0.00032      0.00032     -0.01393         0.000178     -0.000178      0.007724
      0.00892     -0.00141      0.00722        -0.004949      0.000780     -0.004004
      0.00086     -0.00086     -0.08581        -0.000478      0.000478      0.047592
      0.00492     -0.00351     -0.00492        -0.002731      0.001944      0.002731
      0.00298      0.00090     -0.00595        -0.001655     -0.000499      0.003301
     -0.00722     -0.00141     -0.00892         0.004004      0.000780      0.004949
     -0.00090     -0.00298     -0.00595         0.000499      0.001655      0.003301
     -0.00722     -0.00892     -0.00141         0.004004      0.004949      0.000780
      0.00492     -0.00492     -0.00351        -0.002731      0.002731      0.001944
      0.00636     -0.00636     -0.00591        -0.003525      0.003525      0.003278
      0.00892      0.00722     -0.00141        -0.004949     -0.004004      0.000780
      0.08581     -0.00086     -0.00086        -0.047592      0.000478      0.000478
      0.01393      0.00032      0.00032        -0.007724     -0.000178     -0.000178
      0.00595      0.00090     -0.00298        -0.003301     -0.000499      0.001655
      0.00595     -0.00298      0.00090        -0.003301      0.001655     -0.000499
 -----------------------------------------------------------------------------------
 CHAIN + TOTAL  (eV/Angst)
 ----------------------------------------------
      0.00325     -0.00249     -0.00249
      0.00640     -0.00268     -0.00268
      0.00249     -0.00249     -0.00325
      0.00249     -0.00325     -0.00249
      0.00268     -0.00640     -0.00268
      0.00268     -0.00268     -0.00640
      0.01618     -0.01618     -0.01618
      0.00697     -0.00529     -0.00846
      0.00040     -0.00479     -0.00040
     -0.00478      0.00478     -0.00253
     -0.00118      0.00118      0.00118
      0.00254     -0.00254     -0.00248
      0.00040     -0.00040     -0.00479
      0.00529     -0.00697     -0.00846
      0.00479     -0.00040     -0.00040
     -0.00478     -0.00253      0.00478
      0.00529     -0.00846     -0.00697
      0.00697     -0.00846     -0.00529
      0.00254     -0.00248     -0.00254
      0.00846     -0.00697     -0.00529
      0.00846     -0.00529     -0.00697
      0.00253      0.00478      0.00478
      0.00248     -0.00254     -0.00254
      0.01447     -0.00832     -0.01447
     -0.00097      0.00097      0.00042
     -0.00361      0.00361      0.00361
     -0.00042      0.00097      0.00097
      0.01447     -0.01447     -0.00832
     -0.00097      0.00042      0.00097
      0.00832     -0.01447     -0.01447
      0.00339     -0.00339     -0.00339
     -0.00258      0.00073     -0.00526
      0.00075     -0.00971      0.00536
     -0.00258     -0.00526      0.00073
      0.00411     -0.00186     -0.00411
     -0.00208      0.00382      0.00382
      0.00646      0.00956     -0.00646
      0.00205     -0.00790     -0.00790
     -0.00536     -0.00971     -0.00075
     -0.00382      0.00208      0.00382
      0.00411     -0.00411     -0.00186
     -0.00073      0.00258     -0.00526
      0.00646     -0.00646      0.00956
      0.00790     -0.00205     -0.00790
     -0.00536     -0.00075     -0.00971
      0.00526      0.00258      0.00073
      0.00075      0.00536     -0.00971
      0.00526      0.00073      0.00258
      0.00790     -0.00790     -0.00205
     -0.00382      0.00382      0.00208
     -0.00073     -0.00526      0.00258
     -0.00956     -0.00646     -0.00646
      0.00186     -0.00411     -0.00411
      0.00971     -0.00075      0.00536
      0.00971      0.00536     -0.00075
 ----------------------------------------------
 Quasi-Newton relaxation of ions (Broydens 2nd method)
  g(Force)  = 0.390E-02   g(Stress)= 0.000E+00

 retain information from N=  2 steps
 eigenvalues of (default step * inverse Hessian matrix)
  average eigenvalue of G=   7.2050
 eigenvalue spectrum of G is  7.2050  7.2050


--------------------------------------------------------------------------------------------------------


  
 reached required accuracy - stopping structural energy minimisation
     LOOP+:  cpu time  246.7582: real time  248.1004
    4ORBIT:  cpu time    0.0000: real time    0.0000
 


 total charge     
 
# of ion       s       p       d       tot
------------------------------------------
    1        0.387   0.361   0.000   0.748
    2        0.387   0.364   0.000   0.752
    3        0.386   0.360   0.000   0.746
    4        0.387   0.361   0.000   0.748
    5        0.387   0.365   0.000   0.752
    6        0.386   0.364   0.000   0.751
    7        0.416   0.313   0.000   0.729
    8        0.420   6.527   7.378  14.326
    9        0.420   6.524   7.401  14.344
   10        0.420   6.525   7.393  14.338
   11        0.414   6.515   7.435  14.364
   12        0.407   6.487   7.489  14.383
   13        0.420   6.524   7.386  14.330
   14        0.420   6.527   7.448  14.395
   15        0.419   6.523   7.471  14.413
   16        0.420   6.524   7.408  14.352
   17        0.419   6.527   7.462  14.408
   18        0.421   6.527   7.360  14.307
   19        0.406   6.489   7.407  14.303
   20        0.420   6.527   7.398  14.345
   21        0.420   6.527   7.430  14.377
   22        0.420   6.523   7.464  14.407
   23        0.405   6.493   7.366  14.263
   24        1.334   2.383   0.000   3.717
   25        1.327   2.387   0.000   3.715
   26        1.354   2.308   0.000   3.661
   27        1.327   2.381   0.000   3.708
   28        1.336   2.381   0.000   3.717
   29        1.327   2.386   0.000   3.713
   30        1.332   2.391   0.000   3.723
   31        1.360   2.296   0.000   3.656
   32        1.328   2.390   0.000   3.718
   33        1.326   2.388   0.000   3.714
   34        1.327   2.388   0.000   3.715
   35        1.328   2.386   0.000   3.714
   36        1.328   2.380   0.000   3.709
   37        1.356   2.295   0.000   3.651
   38        1.330   2.388   0.000   3.718
   39        1.326   2.383   0.000   3.709
   40        1.329   2.383   0.000   3.712
   41        1.327   2.386   0.000   3.714
   42        1.328   2.388   0.000   3.716
   43        1.357   2.304   0.000   3.660
   44        1.329   2.386   0.000   3.715
   45        1.327   2.385   0.000   3.712
   46        1.329   2.390   0.000   3.718
   47        1.327   2.388   0.000   3.715
   48        1.329   2.390   0.000   3.719
   49        1.328   2.385   0.000   3.713
   50        1.329   2.385   0.000   3.714
   51        1.328   2.387   0.000   3.715
   52        1.354   2.298   0.000   3.652
   53        1.329   2.384   0.000   3.713
   54        1.326   2.390   0.000   3.716
   55        1.327   2.388   0.000   3.715
--------------------------------------------------
tot         52.059 182.704 118.696 353.459
 


 magnetization (x)
 
# of ion       s       p       d       tot
------------------------------------------
    1        0.000   0.000   0.000   0.000
    2        0.000   0.000   0.000   0.000
    3       -0.000   0.000   0.000   0.000
    4        0.000   0.000   0.000   0.001
    5        0.000   0.000   0.000   0.000
    6        0.000   0.000   0.000   0.000
    7        0.000  -0.000   0.000  -0.000
    8       -0.000   0.000  -0.002  -0.002
    9       -0.000   0.000   0.003   0.003
   10       -0.000   0.000   0.004   0.004
   11        0.000   0.000   0.033   0.033
   12        0.000   0.000   0.015   0.015
   13       -0.000   0.000   0.005   0.005
   14       -0.000  -0.000  -0.003  -0.003
   15       -0.000   0.000   0.005   0.005
   16       -0.000   0.000   0.002   0.002
   17       -0.000  -0.000  -0.003  -0.003
   18       -0.000   0.000  -0.003  -0.003
   19        0.000   0.000   0.010   0.011
   20       -0.000  -0.000  -0.003  -0.003
   21       -0.000  -0.000  -0.003  -0.003
   22       -0.000   0.000   0.005   0.005
   23        0.000   0.000   0.013   0.013
   24       -0.000   0.000   0.000   0.000
   25        0.000  -0.000   0.000   0.000
   26       -0.000  -0.000   0.000  -0.000
   27        0.000  -0.001   0.000  -0.000
   28        0.000   0.000   0.000   0.000
   29        0.001  -0.000   0.000   0.000
   30       -0.000   0.000   0.000   0.000
   31       -0.000  -0.000   0.000  -0.000
   32        0.000  -0.000   0.000   0.000
   33        0.000  -0.000   0.000  -0.000
   34        0.000  -0.000   0.000  -0.000
   35       -0.000   0.000   0.000  -0.000
   36        0.000  -0.000   0.000  -0.000
   37        0.000   0.000   0.000   0.000
   38       -0.000  -0.000   0.000  -0.000
   39        0.000  -0.000   0.000  -0.000
   40        0.000  -0.000   0.000   0.000
   41       -0.000   0.000   0.000  -0.000
   42        0.000  -0.000   0.000   0.000
   43        0.000   0.000   0.000   0.000
   44       -0.000   0.000   0.000  -0.000
   45        0.000  -0.000   0.000   0.000
   46        0.000  -0.000   0.000   0.000
   47        0.000  -0.000   0.000   0.000
   48        0.000  -0.000   0.000   0.000
   49       -0.000   0.000   0.000  -0.000
   50        0.000  -0.000   0.000   0.000
   51        0.000  -0.000   0.000  -0.000
   52        0.000   0.000   0.000   0.000
   53       -0.000   0.000   0.000  -0.000
   54        0.000   0.000   0.000   0.000
   55        0.000  -0.000   0.000   0.000
--------------------------------------------------
tot          0.005  -0.001   0.079   0.082
 
 BZINTS: Fermi energy:  6.984169;453.000000 electrons
         Band energy:***********;  BLOECHL correction: -0.526552

 total amount of memory used by VASP MPI-rank0   154731. kBytes
=======================================================================

   base      :      30000. kBytes
   nonlr-proj:       5462. kBytes
   fftplans  :       9381. kBytes
   grid      :      24648. kBytes
   one-center:        155. kBytes
   wavefun   :      85085. kBytes
 
  
  
 General timing and accounting informations for this job:
 ========================================================
  
                  Total CPU time used (sec):     2724.103
                            User time (sec):     2722.061
                          System time (sec):        2.041
                         Elapsed time (sec):     2739.743
  
                   Maximum memory used (kb):      401132.
                   Average memory used (kb):           0.
  
                          Minor page faults:       590112
                          Major page faults:           53
                 Voluntary context switches:        27658
