 vasp.5.4.4.2.16052018-CX13-ORIG (build Jul 06 2020 08:41:35) complex           
  
 executed on   Pi1911m201i197avx2 date 2023.12.24  22:58:25
 running on   48 total cores
 distrk:  each k-point on   48 cores,    1 groups
 distr:  one band on NCORES_PER_BAND=   1 cores,   48 groups


--------------------------------------------------------------------------------------------------------


 INCAR:
 POTCAR:    PAW_PBE Al 04Jan2001                  
 POTCAR:    PAW_PBE Co_pv 23Apr2009               
 POTCAR:    PAW_PBE S 06Sep2000                   

 ----------------------------------------------------------------------------- 
|                                                                             |
|           W    W    AA    RRRRR   N    N  II  N    N   GGGG   !!!           |
|           W    W   A  A   R    R  NN   N  II  NN   N  G    G  !!!           |
|           W    W  A    A  R    R  N N  N  II  N N  N  G       !!!           |
|           W WW W  AAAAAA  RRRRR   N  N N  II  N  N N  G  GGG   !            |
|           WW  WW  A    A  R   R   N   NN  II  N   NN  G    G                |
|           W    W  A    A  R    R  N    N  II  N    N   GGGG   !!!           |
|                                                                             |
|      For optimal performance we recommend to set                            |
|        NCORE= 4 - approx SQRT( number of cores)                             |
|      NCORE specifies how many cores store one orbital (NPAR=cpu/NCORE).     |
|      This setting can  greatly improve the performance of VASP for DFT.     |
|      The default,   NCORE=1            might be grossly inefficient         |
|      on modern multi-core architectures or massively parallel machines.     |
|      Do your own testing !!!!                                               |
|      Unfortunately you need to use the default for GW and RPA calculations. |
|      (for HF NCORE is supported but not extensively tested yet)             |
|                                                                             |
 ----------------------------------------------------------------------------- 

 POTCAR:    PAW_PBE Al 04Jan2001                  
   VRHFIN =Al: s2p1                                                             
   LEXCH  = PE                                                                  
   EATOM  =    53.5387 eV,    3.9350 Ry                                         
                                                                                
   TITEL  = PAW_PBE Al 04Jan2001                                                
   LULTRA =        F    use ultrasoft PP ?                                      
   IUNSCR =        1    unscreen: 0-lin 1-nonlin 2-no                           
   RPACOR =    1.500    partial core radius                                     
   POMASS =   26.981; ZVAL   =    3.000    mass and valenz                      
   RCORE  =    1.900    outmost cutoff radius                                   
   RWIGS  =    2.650; RWIGS  =    1.402    wigner-seitz radius (au A)           
   ENMAX  =  240.300; ENMIN  =  180.225 eV                                      
   ICORE  =        2    local potential                                         
   LCOR   =        T    correct aug charges                                     
   LPAW   =        T    paw PP                                                  
   EAUG   =  291.052                                                            
   DEXC   =    0.000                                                            
   RMAX   =    1.939    core radius for proj-oper                               
   RAUG   =    1.300    factor for augmentation sphere                          
   RDEP   =    1.966    radius for radial grids                                 
   RDEPT  =    1.856    core radius for aug-charge                              
                                                                                
   Atomic configuration                                                         
    6 entries                                                                   
     n  l   j            E        occ.                                          
     1  0  0.50     -1511.1048   2.0000                                         
     2  0  0.50      -108.1629   2.0000                                         
     2  1  1.50       -69.6402   6.0000                                         
     3  0  0.50        -7.7528   2.0000                                         
     3  1  1.50        -2.7121   1.0000                                         
     3  2  2.50        -2.7212   0.0000                                         
   Description                                                                  
     l       E           TYP  RCUT    TYP  RCUT                                 
     0     -7.7528455     23  1.900                                             
     0     -3.3096929     23  1.900                                             
     1     -2.7120682     23  1.900                                             
     1     13.6058260     23  1.900                                             
     2     -2.7211652      7  1.900                                             
  local pseudopotential read in
  partial core-charges read in
  partial kinetic energy density read in
  atomic valenz-charges read in
  non local Contribution for L=           0  read in
    real space projection operators read in
  non local Contribution for L=           0  read in
    real space projection operators read in
  non local Contribution for L=           1  read in
    real space projection operators read in
  non local Contribution for L=           1  read in
    real space projection operators read in
    PAW grid and wavefunctions read in
 
   number of l-projection  operators is LMAX  =           4
   number of lm-projection operators is LMMAX =           8
 
 POTCAR:    PAW_PBE Co_pv 23Apr2009               
   VRHFIN =Co: 3pd7s1                                                           
   LEXCH  = PE                                                                  
   EATOM  =  2948.1334 eV,  216.6817 Ry                                         
                                                                                
   TITEL  = PAW_PBE Co_pv 23Apr2009                                             
   LULTRA =        F    use ultrasoft PP ?                                      
   IUNSCR =        1    unscreen: 0-lin 1-nonlin 2-no                           
   RPACOR =    2.000    partial core radius                                     
   POMASS =   58.933; ZVAL   =   15.000    mass and valenz                      
   RCORE  =    2.300    outmost cutoff radius                                   
   RWIGS  =    2.460; RWIGS  =    1.302    wigner-seitz radius (au A)           
   ENMAX  =  271.042; ENMIN  =  203.281 eV                                      
   ICORE  =        3    local potential                                         
   LCOR   =        T    correct aug charges                                     
   LPAW   =        T    paw PP                                                  
   EAUG   =  543.066                                                            
   DEXC   =    0.000                                                            
   RMAX   =    2.360    core radius for proj-oper                               
   RAUG   =    1.300    factor for augmentation sphere                          
   RDEP   =    2.393    radius for radial grids                                 
   RDEPT  =    1.841    core radius for aug-charge                              
                                                                                
   Atomic configuration                                                         
    8 entries                                                                   
     n  l   j            E        occ.                                          
     1  0  0.50     -7587.6674   2.0000                                         
     2  0  0.50      -893.6084   2.0000                                         
     2  1  1.50      -764.5805   6.0000                                         
     3  0  0.50       -97.5973   2.0000                                         
     3  1  1.50       -60.9648   6.0000                                         
     3  2  2.50        -4.2382   8.0000                                         
     4  0  0.50        -4.3746   1.0000                                         
     4  3  2.50        -1.3606   0.0000                                         
   Description                                                                  
     l       E           TYP  RCUT    TYP  RCUT                                 
     1    -60.9647990     23  2.000                                             
     1     -5.4423304     23  2.000                                             
     2     -4.2382362     23  2.300                                             
     2     -5.5988188     23  2.300                                             
     0     -4.3745797     23  2.300                                             
     0      5.7660125     23  2.300                                             
     3     -1.3605826     23  2.300                                             
  local pseudopotential read in
  partial core-charges read in
  partial kinetic energy density read in
  atomic valenz-charges read in
  non local Contribution for L=           1  read in
    real space projection operators read in
  non local Contribution for L=           1  read in
    real space projection operators read in
  non local Contribution for L=           2  read in
    real space projection operators read in
  non local Contribution for L=           2  read in
    real space projection operators read in
  non local Contribution for L=           0  read in
    real space projection operators read in
  non local Contribution for L=           0  read in
    real space projection operators read in
    PAW grid and wavefunctions read in
 
   number of l-projection  operators is LMAX  =           6
   number of lm-projection operators is LMMAX =          18
 
 POTCAR:    PAW_PBE S 06Sep2000                   
   VRHFIN =S : s2p4                                                             
   LEXCH  = PE                                                                  
   EATOM  =   276.8230 eV,   20.3459 Ry                                         
                                                                                
   TITEL  = PAW_PBE S 06Sep2000                                                 
   LULTRA =        F    use ultrasoft PP ?                                      
   IUNSCR =        1    unscreen: 0-lin 1-nonlin 2-no                           
   RPACOR =    1.500    partial core radius                                     
   POMASS =   32.066; ZVAL   =    6.000    mass and valenz                      
   RCORE  =    1.900    outmost cutoff radius                                   
   RWIGS  =    2.200; RWIGS  =    1.164    wigner-seitz radius (au A)           
   ENMAX  =  258.689; ENMIN  =  194.016 eV                                      
   ICORE  =        2    local potential                                         
   LCOR   =        T    correct aug charges                                     
   LPAW   =        T    paw PP                                                  
   EAUG   =  335.092                                                            
   DEXC   =    0.000                                                            
   RMAX   =    1.942    core radius for proj-oper                               
   RAUG   =    1.300    factor for augmentation sphere                          
   RDEP   =    1.954    radius for radial grids                                 
   RDEPT  =    1.744    core radius for aug-charge                              
                                                                                
   Atomic configuration                                                         
    6 entries                                                                   
     n  l   j            E        occ.                                          
     1  0  0.50     -2405.8406   2.0000                                         
     2  0  0.50      -211.7007   2.0000                                         
     2  1  1.50      -156.4958   6.0000                                         
     3  0  0.50       -17.2562   2.0000                                         
     3  1  0.50        -7.0085   4.0000                                         
     3  2  1.50        -6.8029   0.0000                                         
   Description                                                                  
     l       E           TYP  RCUT    TYP  RCUT                                 
     0    -17.2561641     23  1.900                                             
     0    -15.8743224     23  1.900                                             
     1     -7.0085400     23  1.900                                             
     1     -2.7779785     23  1.900                                             
     2     -6.8029130     23  1.900                                             
  local pseudopotential read in
  partial core-charges read in
  partial kinetic energy density read in
  atomic valenz-charges read in
  non local Contribution for L=           0  read in
    real space projection operators read in
  non local Contribution for L=           0  read in
    real space projection operators read in
  non local Contribution for L=           1  read in
    real space projection operators read in
  non local Contribution for L=           1  read in
    real space projection operators read in
    PAW grid and wavefunctions read in
 
   number of l-projection  operators is LMAX  =           4
   number of lm-projection operators is LMMAX =           8
 
 Optimization of the real space projectors (new method)

 maximal supplied QI-value         = 19.84
 optimisation between [QCUT,QGAM] = [ 11.51, 23.22] = [ 37.09,150.92] Ry 
 Optimized for a Real-space Cutoff    1.18 Angstroem

   l    n(q)    QCUT    max X(q) W(low)/X(q) W(high)/X(q)  e(spline) 
   0      8    11.508   176.870    0.11E-03    0.16E-03    0.40E-07
   0      8    11.508   105.762    0.11E-03    0.16E-03    0.39E-07
   1      8    11.508    55.370    0.23E-03    0.10E-03    0.75E-07
   1      8    11.508    20.208    0.21E-03    0.91E-04    0.68E-07
 Optimization of the real space projectors (new method)

 maximal supplied QI-value         = 16.25
 optimisation between [QCUT,QGAM] = [ 11.54, 23.24] = [ 37.28,151.24] Ry 
 Optimized for a Real-space Cutoff    1.32 Angstroem

   l    n(q)    QCUT    max X(q) W(low)/X(q) W(high)/X(q)  e(spline) 
   1      9    11.539     4.946    0.12E-03    0.47E-03    0.20E-06
   1      9    11.539     5.991    0.19E-03    0.70E-03    0.29E-06
   2      8    11.539    46.947    0.22E-03    0.40E-03    0.23E-06
   2      8    11.539    42.928    0.24E-03    0.42E-03    0.23E-06
   0      9    11.539    68.324    0.11E-03    0.13E-03    0.74E-07
   0      9    11.539    36.926    0.10E-03    0.12E-03    0.70E-07
 Optimization of the real space projectors (new method)

 maximal supplied QI-value         = 19.84
 optimisation between [QCUT,QGAM] = [ 11.51, 23.22] = [ 37.09,150.92] Ry 
 Optimized for a Real-space Cutoff    1.21 Angstroem

   l    n(q)    QCUT    max X(q) W(low)/X(q) W(high)/X(q)  e(spline) 
   0      8    11.508   187.594    0.96E-04    0.18E-03    0.54E-07
   0      8    11.508   164.243    0.96E-04    0.18E-03    0.54E-07
   1      8    11.508    67.533    0.18E-03    0.65E-04    0.94E-07
   1      8    11.508    50.729    0.18E-03    0.63E-04    0.92E-07
  PAW_PBE Al 04Jan2001                  :
 energy of atom  1       EATOM=  -53.5387
 kinetic energy error for atom=    0.0002 (will be added to EATOM!!)
  PAW_PBE Co_pv 23Apr2009               :
 energy of atom  2       EATOM=-2948.1334
 kinetic energy error for atom=    0.0056 (will be added to EATOM!!)
  PAW_PBE S 06Sep2000                   :
 energy of atom  3       EATOM= -276.8230
 kinetic energy error for atom=    0.0016 (will be added to EATOM!!)
 
 
 POSCAR: Al Co  S                                
  positions in direct lattice
  No initial velocities read in
 exchange correlation table for  LEXCH =        8
   RHO(1)=    0.500       N(1)  =     2000
   RHO(2)=  100.500       N(2)  =     4000
 


--------------------------------------------------------------------------------------------------------


 ion  position               nearest neighbor table
   1  0.000  0.000  0.000-  27 2.30  39 2.30  45 2.30  53 2.30
   2  0.250  0.750  0.750-  32 2.30  34 2.30  36 2.30  38 2.30
   3  0.500  0.000  0.500-  25 2.30  33 2.30  41 2.30  54 2.30
   4  0.500  0.500  0.000-  29 2.30  35 2.30  47 2.30  55 2.30
   5  0.750  0.250  0.750-  40 2.30  42 2.30  44 2.30  46 2.30
   6  0.750  0.750  0.250-  48 2.30  49 2.30  50 2.30  51 2.30
   7  0.250  0.250  0.250-  24 2.30  26 2.30  28 2.30  30 2.30
   8  0.125  0.125  0.625-  24 2.28  34 2.28  41 2.28  43 2.28  44 2.28  45 2.28
   9  0.875  0.875  0.625-  25 2.28  27 2.28  31 2.28  34 2.28  44 2.28  51 2.28
  10  0.375  0.125  0.875-  26 2.28  36 2.28  40 2.28  41 2.28  45 2.28  47 2.28
  11  0.625  0.875  0.875-  25 2.28  27 2.28  29 2.28  36 2.28  40 2.28  50 2.28
  12  0.125  0.375  0.875-  28 2.28  32 2.28  42 2.28  43 2.28  45 2.28  47 2.28
  13  0.875  0.625  0.875-  27 2.28  29 2.28  31 2.28  32 2.28  42 2.28  49 2.28
  14  0.375  0.375  0.625-  30 2.28  38 2.28  41 2.28  43 2.28  46 2.28  47 2.28
  15  0.625  0.625  0.625-  25 2.28  29 2.28  31 2.28  38 2.28  46 2.28  48 2.28
  16  0.375  0.875  0.125-  26 2.28  33 2.28  35 2.28  36 2.28  39 2.28  50 2.28
  17  0.375  0.625  0.375-  30 2.28  33 2.28  35 2.28  37 2.28  38 2.28  48 2.28
  18  0.125  0.625  0.125-  28 2.28  32 2.28  35 2.28  37 2.28  39 2.28  49 2.28
  19  0.125  0.875  0.375-  24 2.28  33 2.28  34 2.28  37 2.28  39 2.28  51 2.28
  20  0.875  0.375  0.125-  28 2.28  42 2.28  49 2.28  52 2.28  53 2.28  55 2.28
  21  0.875  0.125  0.375-  24 2.28  44 2.28  51 2.28  52 2.28  53 2.28  54 2.28
  22  0.625  0.125  0.125-  26 2.28  40 2.28  50 2.28  53 2.28  54 2.28  55 2.28
  23  0.625  0.375  0.375-  30 2.28  46 2.28  48 2.28  52 2.28  54 2.28  55 2.28
  24  0.111  0.111  0.389-   8 2.28  19 2.28  21 2.28   7 2.30
  25  0.639  0.861  0.639-   9 2.28  11 2.28  15 2.28   3 2.30
  26  0.389  0.111  0.111-  10 2.28  16 2.28  22 2.28   7 2.30
  27  0.861  0.861  0.861-   9 2.28  11 2.28  13 2.28   1 2.30
  28  0.111  0.389  0.111-  12 2.28  18 2.28  20 2.28   7 2.30
  29  0.639  0.639  0.861-  11 2.28  13 2.28  15 2.28   4 2.30
  30  0.389  0.389  0.389-  14 2.28  17 2.28  23 2.28   7 2.30
  31  0.861  0.639  0.639-   9 2.28  13 2.28  15 2.28
  32  0.111  0.611  0.889-  12 2.28  13 2.28  18 2.28   2 2.30
  33  0.361  0.861  0.361-  16 2.28  17 2.28  19 2.28   3 2.30
  34  0.111  0.889  0.611-   8 2.28   9 2.28  19 2.28   2 2.30
  35  0.361  0.639  0.139-  16 2.28  17 2.28  18 2.28   4 2.30
  36  0.389  0.889  0.889-  10 2.28  11 2.28  16 2.28   2 2.30
  37  0.139  0.639  0.361-  17 2.28  18 2.28  19 2.28
  38  0.389  0.611  0.611-  14 2.28  15 2.28  17 2.28   2 2.30
  39  0.139  0.861  0.139-  16 2.28  18 2.28  19 2.28   1 2.30
  40  0.611  0.111  0.889-  10 2.28  11 2.28  22 2.28   5 2.30
  41  0.361  0.139  0.639-   8 2.28  10 2.28  14 2.28   3 2.30
  42  0.889  0.389  0.889-  12 2.28  13 2.28  20 2.28   5 2.30
  43  0.139  0.361  0.639-   8 2.28  12 2.28  14 2.28
  44  0.889  0.111  0.611-   8 2.28   9 2.28  21 2.28   5 2.30
  45  0.139  0.139  0.861-   8 2.28  10 2.28  12 2.28   1 2.30
  46  0.611  0.389  0.611-  14 2.28  15 2.28  23 2.28   5 2.30
  47  0.361  0.361  0.861-  10 2.28  12 2.28  14 2.28   4 2.30
  48  0.611  0.611  0.389-  15 2.28  17 2.28  23 2.28   6 2.30
  49  0.889  0.611  0.111-  13 2.28  18 2.28  20 2.28   6 2.30
  50  0.611  0.889  0.111-  11 2.28  16 2.28  22 2.28   6 2.30
  51  0.889  0.889  0.389-   9 2.28  19 2.28  21 2.28   6 2.30
  52  0.861  0.361  0.361-  20 2.28  21 2.28  23 2.28
  53  0.861  0.139  0.139-  20 2.28  21 2.28  22 2.28   1 2.30
  54  0.639  0.139  0.361-  21 2.28  22 2.28  23 2.28   3 2.30
  55  0.639  0.361  0.139-  20 2.28  22 2.28  23 2.28   4 2.30
 
  LATTYP: Found a simple cubic cell.
 ALAT       =     9.6027250954
  
  Lattice vectors:
  
 A1 = (   9.6027250954,   0.0000000000,   0.0000000000)
 A2 = (   0.0000000000,   9.6027250954,   0.0000000000)
 A3 = (   0.0000000000,   0.0000000000,   9.6027250954)


Analysis of symmetry for initial positions (statically):
=====================================================================
 Subroutine PRICEL returns:
 Original cell was already a primitive cell.
 

 Routine SETGRP: Setting up the symmetry group for a 
 simple cubic supercell.


 Subroutine GETGRP returns: Found 24 space group operations
 (whereof  8 operations were pure point group operations)
 out of a pool of 48 trial point group operations.


The static configuration has the point symmetry D_2d.
 The point group associated with its full space group is T_d .


Analysis of symmetry for dynamics (positions and initial velocities):
=====================================================================
 Subroutine PRICEL returns:
 Original cell was already a primitive cell.
 

 Routine SETGRP: Setting up the symmetry group for a 
 simple cubic supercell.


 Subroutine GETGRP returns: Found 24 space group operations
 (whereof  8 operations were pure point group operations)
 out of a pool of 48 trial point group operations.


The dynamic configuration has the point symmetry D_2d.
 The point group associated with its full space group is T_d .


Analysis of structural, dynamic, and magnetic symmetry:
=====================================================================
 Subroutine PRICEL returns:
 Original cell was already a primitive cell.
 

 Routine SETGRP: Setting up the symmetry group for a 
 simple cubic supercell.


 Subroutine GETGRP returns: Found 24 space group operations
 (whereof  8 operations were pure point group operations)
 out of a pool of 48 trial point group operations.


The magnetic configuration has the point symmetry D_2d.
 The point group associated with its full space group is T_d .


 Subroutine INISYM returns: Found 24 space group operations
 (whereof  8 operations are pure point group operations),
 and found     1 'primitive' translations

 
 
 KPOINTS: k-points file                           

Automatic generation of k-mesh.
Space group operators:
 irot       det(A)        alpha          n_x          n_y          n_z        tau_x        tau_y        tau_z
    1     1.000000     0.000000     1.000000     0.000000     0.000000     0.000000     0.000000     0.000000
    2    -1.000000   180.000000     0.000000     0.707107     0.707107     0.000000     0.000000     0.000000
    3     1.000000   180.000000     0.000000     0.000000     1.000000     0.000000     0.000000     0.000000
    4    -1.000000    90.000000    -1.000000     0.000000     0.000000     0.000000     0.000000     0.000000
    5     1.000000   180.000000     1.000000     0.000000     0.000000     0.000000     0.000000     0.000000
    6    -1.000000    90.000000     1.000000     0.000000     0.000000     0.000000     0.000000     0.000000
    7     1.000000   180.000000     0.000000     1.000000     0.000000     0.000000     0.000000     0.000000
    8    -1.000000   180.000000     0.000000    -0.707107     0.707107     0.000000     0.000000     0.000000
    9     1.000000   120.000000    -0.577350    -0.577350    -0.577350     0.500000     0.500000     0.000000
   10     1.000000   120.000000     0.577350     0.577350     0.577350     0.500000     0.000000     0.500000
   11    -1.000000    90.000000     0.000000     0.000000    -1.000000     0.500000     0.500000     0.000000
   12    -1.000000    90.000000     0.000000     1.000000     0.000000     0.500000     0.000000     0.500000
   13     1.000000   120.000000    -0.577350     0.577350     0.577350     0.500000     0.500000     0.000000
   14     1.000000   120.000000    -0.577350     0.577350    -0.577350     0.500000     0.000000     0.500000
   15    -1.000000    90.000000     0.000000     0.000000     1.000000     0.500000     0.500000     0.000000
   16    -1.000000   180.000000     0.707107     0.000000     0.707107     0.500000     0.000000     0.500000
   17     1.000000   120.000000     0.577350    -0.577350     0.577350     0.500000     0.500000     0.000000
   18     1.000000   120.000000    -0.577350    -0.577350     0.577350     0.500000     0.000000     0.500000
   19    -1.000000    90.000000     0.000000    -1.000000     0.000000     0.500000     0.000000     0.500000
   20    -1.000000   180.000000     0.707107     0.707107     0.000000     0.500000     0.500000     0.000000
   21     1.000000   120.000000     0.577350    -0.577350    -0.577350     0.500000     0.000000     0.500000
   22     1.000000   120.000000     0.577350     0.577350    -0.577350     0.500000     0.500000     0.000000
   23    -1.000000   180.000000     0.707107    -0.707107     0.000000     0.500000     0.500000     0.000000
   24    -1.000000   180.000000     0.707107     0.000000    -0.707107     0.500000     0.000000     0.500000
 
 Subroutine IBZKPT returns following result:
 ===========================================
 
 Found      4 irreducible k-points:
 
 Following reciprocal coordinates:
            Coordinates               Weight
  0.000000  0.000000  0.000000      1.000000
  0.500000  0.000000  0.000000      3.000000
  0.500000  0.500000  0.000000      3.000000
  0.500000  0.500000  0.500000      1.000000
 
 Following cartesian coordinates:
            Coordinates               Weight
  0.000000  0.000000  0.000000      1.000000
  0.052069  0.000000  0.000000      3.000000
  0.052069  0.052069  0.000000      3.000000
  0.052069  0.052069  0.052069      1.000000
 
 TETIRR: Found      4 inequivalent tetrahedra from       48


--------------------------------------------------------------------------------------------------------




 Dimension of arrays:
   k-points           NKPTS =      4   k-points in BZ     NKDIM =      4   number of bands    NBANDS=    336
   number of dos      NEDOS =    301   number of ions     NIONS =     55
   non local maximal  LDIM  =      6   non local SUM 2l+1 LMDIM =     18
   total plane-waves  NPLWV = 373248
   max r-space proj   IRMAX =   4139   max aug-charges    IRDMAX=  16603
   dimension x,y,z NGX =    72 NGY =   72 NGZ =   72
   dimension x,y,z NGXF=   144 NGYF=  144 NGZF=  144
   support grid    NGXF=   144 NGYF=  144 NGZF=  144
   ions per type =               7  16  32
   NGX,Y,Z   is equivalent  to a cutoff of  12.46, 12.46, 12.46 a.u.
   NGXF,Y,Z  is equivalent  to a cutoff of  24.93, 24.93, 24.93 a.u.

 SYSTEM =  AlCo2S4                                 
 POSCAR =  Al Co  S                                

 Startparameter for this run:
   NWRITE =      2    write-flag & timer
   PREC   = accura    normal or accurate (medium, high low for compatibility)
   ISTART =      0    job   : 0-new  1-cont  2-samecut
   ICHARG =      1    charge: 1-file 2-atom 10-const
   ISPIN  =      2    spin polarized calculation?
   LNONCOLLINEAR =      F non collinear calculations
   LSORBIT =      F    spin-orbit coupling
   INIWAV =      1    electr: 0-lowe 1-rand  2-diag
   LASPH  =      F    aspherical Exc in radial PAW
   METAGGA=      F    non-selfconsistent MetaGGA calc.

 Electronic Relaxation 1
   ENCUT  =  520.0 eV  38.22 Ry    6.18 a.u.  17.85 17.85 17.85*2*pi/ulx,y,z
   ENINI  =  520.0     initial cutoff
   ENAUG  =  543.1 eV  augmentation charge cutoff
   NELM   =    100;   NELMIN=  2; NELMDL= -5     # of ELM steps 
   EDIFF  = 0.1E-04   stopping-criterion for ELM
   LREAL  =      T    real-space projection
   NLSPLINE    = F    spline interpolate recip. space projectors
   LCOMPAT=      F    compatible to vasp.4.4
   GGA_COMPAT  = T    GGA compatible to vasp.4.4-vasp.4.6
   LMAXPAW     = -100 max onsite density
   LMAXMIX     =    4 max onsite mixed and CHGCAR
   VOSKOWN=      0    Vosko Wilk Nusair interpolation
   ROPT   =   -0.00025  -0.00025  -0.00025
 Ionic relaxation
   EDIFFG = -.1E-01   stopping-criterion for IOM
   NSW    =    199    number of steps for IOM
   NBLOCK =      1;   KBLOCK =    199    inner block; outer block 
   IBRION =      2    ionic relax: 0-MD 1-quasi-New 2-CG
   NFREE  =      1    steps in history (QN), initial steepest desc. (CG)
   ISIF   =      2    stress and relaxation
   IWAVPR =     11    prediction:  0-non 1-charg 2-wave 3-comb
   ISYM   =      2    0-nonsym 1-usesym 2-fastsym
   LCORR  =      T    Harris-Foulkes like correction to forces

   POTIM  = 0.5000    time-step for ionic-motion
   TEIN   =    0.0    initial temperature
   TEBEG  =    0.0;   TEEND  =   0.0 temperature during run
   SMASS  =  -3.00    Nose mass-parameter (am)
   estimated Nose-frequenzy (Omega)   =  0.10E-29 period in steps =****** mass=  -0.211E-26a.u.
   SCALEE = 1.0000    scale energy and forces
   NPACO  =    256;   APACO  = 16.0  distance and # of slots for P.C.
   PSTRESS=    0.0 pullay stress

  Mass of Ions in am
   POMASS =  26.98 58.93 32.07
  Ionic Valenz
   ZVAL   =   3.00 15.00  6.00
  Atomic Wigner-Seitz radii
   RWIGS  =  -1.00 -1.00 -1.00
  virtual crystal weights 
   VCA    =   1.00  1.00  1.00
   NELECT =     453.0000    total number of electrons
   NUPDOWN=      -1.0000    fix difference up-down

 DOS related values:
   EMIN   =  10.00;   EMAX   =-10.00  energy-range for DOS
   EFERMI =   0.00
   ISMEAR =    -5;   SIGMA  =   0.05  broadening in eV -4-tet -1-fermi 0-gaus

 Electronic relaxation 2 (details)
   IALGO  =     38    algorithm
   LDIAG  =      T    sub-space diagonalisation (order eigenvalues)
   LSUBROT=      F    optimize rotation matrix (better conditioning)
   TURBO    =      0    0=normal 1=particle mesh
   IRESTART =      0    0=no restart 2=restart with 2 vectors
   NREBOOT  =      0    no. of reboots
   NMIN     =      0    reboot dimension
   EREF     =   0.00    reference energy to select bands
   IMIX   =      4    mixing-type and parameters
     AMIX     =   0.40;   BMIX     =  1.00
     AMIX_MAG =   1.60;   BMIX_MAG =  1.00
     AMIN     =   0.10
     WC   =   100.;   INIMIX=   1;  MIXPRE=   1;  MAXMIX= -45

 Intra band minimization:
   WEIMIN = 0.0010     energy-eigenvalue tresh-hold
   EBREAK =  0.74E-08  absolut break condition
   DEPER  =   0.30     relativ break condition  

   TIME   =   0.40     timestep for ELM

  volume/ion in A,a.u.               =      16.10       108.65
  Fermi-wavevector in a.u.,A,eV,Ry     =   1.309322  2.474259 23.324789  1.714324
  Thomas-Fermi vector in A             =   2.439928
 
 Write flags
   LWAVE        =      F    write WAVECAR
   LDOWNSAMPLE  =      F    k-point downsampling of WAVECAR
   LCHARG       =      F    write CHGCAR
   LVTOT        =      F    write LOCPOT, total local potential
   LVHAR        =      F    write LOCPOT, Hartree potential only
   LELF         =      F    write electronic localiz. function (ELF)
   LORBIT       =     11    0 simple, 1 ext, 2 COOP (PROOUT), +10 PAW based schemes


 Dipole corrections
   LMONO  =      F    monopole corrections only (constant potential shift)
   LDIPOL =      F    correct potential (dipole corrections)
   IDIPOL =      0    1-x, 2-y, 3-z, 4-all directions 
   EPSILON=  1.0000000 bulk dielectric constant

 Exchange correlation treatment:
   GGA     =    --    GGA type
   LEXCH   =     8    internal setting for exchange type
   VOSKOWN=      0    Vosko Wilk Nusair interpolation
   LHFCALC =     F    Hartree Fock is set to
   LHFONE  =     F    Hartree Fock one center treatment
   AEXX    =    0.0000 exact exchange contribution

 Linear response parameters
   LEPSILON=     F    determine dielectric tensor
   LRPA    =     F    only Hartree local field effects (RPA)
   LNABLA  =     F    use nabla operator in PAW spheres
   LVEL    =     F    velocity operator in full k-point grid
   LINTERFAST=   F  fast interpolation
   KINTER  =     0    interpolate to denser k-point grid
   CSHIFT  =0.1000    complex shift for real part using Kramers Kronig
   OMEGAMAX=  -1.0    maximum frequency
   DEG_THRESHOLD= 0.2000000E-02 threshold for treating states as degnerate
   RTIME   =   -0.100 relaxation time in fs
  (WPLASMAI=    0.000 imaginary part of plasma frequency in eV, 0.658/RTIME)
   DFIELD  = 0.0000000 0.0000000 0.0000000 field for delta impulse in time
 
 Orbital magnetization related:
   ORBITALMAG=     F  switch on orbital magnetization
   LCHIMAG   =     F  perturbation theory with respect to B field
   DQ        =  0.001000  dq finite difference perturbation B field
   LLRAUG    =     F  two centre corrections for induced B field



--------------------------------------------------------------------------------------------------------


 conjugate gradient relaxation of ions
 charge density and potential will be updated during run
 spin polarized calculation
 Variant of blocked Davidson
 Davidson routine will perform the subspace rotation
 perform sub-space diagonalisation
    after iterative eigenvector-optimisation
 modified Broyden-mixing scheme, WC =      100.0
 initial mixing is a Kerker type mixing with AMIX =  0.4000 and BMIX =      1.0000
 Hartree-type preconditioning will be used
 using additional bands          109
 real space projection scheme for non local part
 use partial core corrections
 calculate Harris-corrections to forces 
   (improved forces if not selfconsistent)
 use gradient corrections 
 use of overlap-Matrix (Vanderbilt PP)
 Fermi weights with tetrahedron method with Bloechl corrections


--------------------------------------------------------------------------------------------------------


  energy-cutoff  :      520.00
  volume of cell :      885.49
      direct lattice vectors                 reciprocal lattice vectors
     9.602725095  0.000000000  0.000000000     0.104137106  0.000000000  0.000000000
     0.000000000  9.602725095  0.000000000     0.000000000  0.104137106  0.000000000
     0.000000000  0.000000000  9.602725095     0.000000000  0.000000000  0.104137106

  length of vectors
     9.602725095  9.602725095  9.602725095     0.104137106  0.104137106  0.104137106


 
 k-points in units of 2pi/SCALE and weight: k-points file                           
   0.00000000  0.00000000  0.00000000       0.125
   0.05206855  0.00000000  0.00000000       0.375
   0.05206855  0.05206855  0.00000000       0.375
   0.05206855  0.05206855  0.05206855       0.125
 
 k-points in reciprocal lattice and weights: k-points file                           
   0.00000000  0.00000000  0.00000000       0.125
   0.50000000  0.00000000  0.00000000       0.375
   0.50000000  0.50000000  0.00000000       0.375
   0.50000000  0.50000000  0.50000000       0.125
 
 position of ions in fractional coordinates (direct lattice) 
   0.00000000  0.00000000  0.00000000
   0.25000000  0.75000000  0.75000000
   0.50000000  0.00000000  0.50000000
   0.50000000  0.50000000  0.00000000
   0.75000000  0.25000000  0.75000000
   0.75000000  0.75000000  0.25000000
   0.25000000  0.25000000  0.25000000
   0.12500000  0.12500000  0.62500000
   0.87500000  0.87500000  0.62500000
   0.37500000  0.12500000  0.87500000
   0.62500000  0.87500000  0.87500000
   0.12500000  0.37500000  0.87500000
   0.87500000  0.62500000  0.87500000
   0.37500000  0.37500000  0.62500000
   0.62500000  0.62500000  0.62500000
   0.37500000  0.87500000  0.12500000
   0.37500000  0.62500000  0.37500000
   0.12500000  0.62500000  0.12500000
   0.12500000  0.87500000  0.37500000
   0.87500000  0.37500000  0.12500000
   0.87500000  0.12500000  0.37500000
   0.62500000  0.12500000  0.12500000
   0.62500000  0.37500000  0.37500000
   0.11149459  0.11149459  0.38850541
   0.63850541  0.86149459  0.63850541
   0.38850541  0.11149459  0.11149459
   0.86149459  0.86149459  0.86149459
   0.11149459  0.38850541  0.11149459
   0.63850541  0.63850541  0.86149459
   0.38850541  0.38850541  0.38850541
   0.86149459  0.63850541  0.63850541
   0.11149459  0.61149459  0.88850541
   0.36149459  0.86149459  0.36149459
   0.11149459  0.88850541  0.61149459
   0.36149459  0.63850541  0.13850541
   0.38850541  0.88850541  0.88850541
   0.13850541  0.63850541  0.36149459
   0.38850541  0.61149459  0.61149459
   0.13850541  0.86149459  0.13850541
   0.61149459  0.11149459  0.88850541
   0.36149459  0.13850541  0.63850541
   0.88850541  0.38850541  0.88850541
   0.13850541  0.36149459  0.63850541
   0.88850541  0.11149459  0.61149459
   0.13850541  0.13850541  0.86149459
   0.61149459  0.38850541  0.61149459
   0.36149459  0.36149459  0.86149459
   0.61149459  0.61149459  0.38850541
   0.88850541  0.61149459  0.11149459
   0.61149459  0.88850541  0.11149459
   0.88850541  0.88850541  0.38850541
   0.86149459  0.36149459  0.36149459
   0.86149459  0.13850541  0.13850541
   0.63850541  0.13850541  0.36149459
   0.63850541  0.36149459  0.13850541
 
 position of ions in cartesian coordinates  (Angst):
   0.00000000  0.00000000  0.00000000
   2.40068127  7.20204382  7.20204382
   4.80136255  0.00000000  4.80136255
   4.80136255  4.80136255  0.00000000
   7.20204382  2.40068127  7.20204382
   7.20204382  7.20204382  2.40068127
   2.40068127  2.40068127  2.40068127
   1.20034064  1.20034064  6.00170318
   8.40238446  8.40238446  6.00170318
   3.60102191  1.20034064  8.40238446
   6.00170318  8.40238446  8.40238446
   1.20034064  3.60102191  8.40238446
   8.40238446  6.00170318  8.40238446
   3.60102191  3.60102191  6.00170318
   6.00170318  6.00170318  6.00170318
   3.60102191  8.40238446  1.20034064
   3.60102191  6.00170318  3.60102191
   1.20034064  6.00170318  1.20034064
   1.20034064  8.40238446  3.60102191
   8.40238446  3.60102191  1.20034064
   8.40238446  1.20034064  3.60102191
   6.00170318  1.20034064  1.20034064
   6.00170318  3.60102191  3.60102191
   1.07065186  1.07065186  3.73071069
   6.13139196  8.27269568  6.13139196
   3.73071069  1.07065186  1.07065186
   8.27269568  8.27269568  8.27269568
   1.07065186  3.73071069  1.07065186
   6.13139196  6.13139196  8.27269568
   3.73071069  3.73071069  3.73071069
   8.27269568  6.13139196  6.13139196
   1.07065186  5.87201441  8.53207324
   3.47133313  8.27269568  3.47133313
   1.07065186  8.53207324  5.87201441
   3.47133313  6.13139196  1.33002942
   3.73071069  8.53207324  8.53207324
   1.33002942  6.13139196  3.47133313
   3.73071069  5.87201441  5.87201441
   1.33002942  8.27269568  1.33002942
   5.87201441  1.07065186  8.53207324
   3.47133313  1.33002942  6.13139196
   8.53207324  3.73071069  8.53207324
   1.33002942  3.47133313  6.13139196
   8.53207324  1.07065186  5.87201441
   1.33002942  1.33002942  8.27269568
   5.87201441  3.73071069  5.87201441
   3.47133313  3.47133313  8.27269568
   5.87201441  5.87201441  3.73071069
   8.53207324  5.87201441  1.07065186
   5.87201441  8.53207324  1.07065186
   8.53207324  8.53207324  3.73071069
   8.27269568  3.47133313  3.47133313
   8.27269568  1.33002942  1.33002942
   6.13139196  1.33002942  3.47133313
   6.13139196  3.47133313  1.33002942
 


--------------------------------------------------------------------------------------------------------


 k-point  1 :   0.0000 0.0000 0.0000  plane waves:   23847
 k-point  2 :   0.5000 0.0000 0.0000  plane waves:   23844
 k-point  3 :   0.5000 0.5000 0.0000  plane waves:   23900
 k-point  4 :   0.5000 0.5000 0.5000  plane waves:   23984

 maximum and minimum number of plane-waves per node :     23984    23844

 maximum number of plane-waves:     23984
 maximum index in each direction: 
   IXMAX=   17   IYMAX=   17   IZMAX=   17
   IXMIN=  -18   IYMIN=  -18   IZMIN=  -18


 serial   3D FFT for wavefunctions
 parallel 3D FFT for charge:
    minimum data exchange during FFTs selected (reduces bandwidth)


 total amount of memory used by VASP MPI-rank0   114849. kBytes
=======================================================================

   base      :      30000. kBytes
   nonlr-proj:      21847. kBytes
   fftplans  :       3667. kBytes
   grid      :      35562. kBytes
   one-center:       1710. kBytes
   wavefun   :      22063. kBytes
 
     INWAV:  cpu time    0.0000: real time    0.0000
 Broyden mixing: mesh for mixing (old mesh)
   NGX = 35   NGY = 35   NGZ = 35
  (NGX  =144   NGY  =144   NGZ  =144)
  gives a total of  42875 points

 initial charge density was supplied:
 charge density of overlapping atoms calculated
 number of electron     453.0000000 magnetization     103.4000000
 keeping initial charge density in first step


--------------------------------------------------------------------------------------------------------


 Maximum index for non-local projection operator         3911
 Maximum index for augmentation-charges          761 (set IRDMAX)


--------------------------------------------------------------------------------------------------------


 First call to EWALD:  gamma=   0.185
 Maximum number of real-space cells 3x 3x 3
 Maximum number of reciprocal cells 3x 3x 3

    FEWALD:  cpu time    0.0026: real time    0.0026


--------------------------------------- Iteration      1(   1)  ---------------------------------------


    POTLOK:  cpu time    0.1003: real time    0.1135
    SETDIJ:  cpu time    0.0150: real time    0.0155
     EDDAV:  cpu time    8.8193: real time    8.8762
 BZINTS: Fermi energy: 22.520661;453.000000 electrons
         Band energy:1390.572514;  BLOECHL correction: -0.077208
       DOS:  cpu time    0.0044: real time    0.0044
    --------------------------------------------
      LOOP:  cpu time    8.9391: real time    9.0095

 eigenvalue-minimisations  :  5424
 total energy-change (2. order) : 0.5155991E+04  (-0.2241390E+05)
 number of electron     453.0000000 magnetization     103.4000000
 augmentation part      453.0000000 magnetization     103.4000000

 Free energy of the ion-electron system (eV)
  ---------------------------------------------------
  alpha Z        PSCENC =      1269.90711959
  Ewald energy   TEWEN  =    -29723.10741349
  -Hartree energ DENC   =    -23057.08533601
  -exchange      EXHF   =         0.00000000
  -V(xc)+E(xc)   XCENC  =      1709.55286006
  PAW double counting   =     44894.81802819   -47731.76596422
  entropy T*S    EENTRO =         0.00000000
  eigenvalues    EBANDS =      1390.57251410
  atomic energy  EATOM  =     56403.09886247
  Solvation  Ediel_sol  =         0.00000000
  ---------------------------------------------------
  free energy    TOTEN  =      5155.99067070 eV

  energy without entropy =     5155.99067070  energy(sigma->0) =     5155.99067070


--------------------------------------------------------------------------------------------------------




--------------------------------------- Iteration      1(   2)  ---------------------------------------


     EDDAV:  cpu time    8.7353: real time    8.7990
 BZINTS: Fermi energy: 10.388636;453.000000 electrons
         Band energy:***********;  BLOECHL correction: -0.004668
       DOS:  cpu time    0.0031: real time    0.0031
    --------------------------------------------
      LOOP:  cpu time    8.7384: real time    8.8021

 eigenvalue-minimisations  :  5376
 total energy-change (2. order) :-0.4796308E+04  (-0.4482400E+04)
 number of electron     453.0000000 magnetization     103.4000000
 augmentation part      453.0000000 magnetization     103.4000000

 Free energy of the ion-electron system (eV)
  ---------------------------------------------------
  alpha Z        PSCENC =      1269.90711959
  Ewald energy   TEWEN  =    -29723.10741349
  -Hartree energ DENC   =    -23057.08533601
  -exchange      EXHF   =         0.00000000
  -V(xc)+E(xc)   XCENC  =      1709.55286006
  PAW double counting   =     44894.81802819   -47731.76596422
  entropy T*S    EENTRO =         0.00000000
  eigenvalues    EBANDS =     -3405.73516272
  atomic energy  EATOM  =     56403.09886247
  Solvation  Ediel_sol  =         0.00000000
  ---------------------------------------------------
  free energy    TOTEN  =       359.68299389 eV

  energy without entropy =      359.68299389  energy(sigma->0) =      359.68299389


--------------------------------------------------------------------------------------------------------




--------------------------------------- Iteration      1(   3)  ---------------------------------------


     EDDAV:  cpu time    9.7510: real time    9.8162
 BZINTS: Fermi energy:  9.126131;453.000000 electrons
         Band energy:***********;  BLOECHL correction: -0.209011
       DOS:  cpu time    0.0033: real time    0.0033
    --------------------------------------------
      LOOP:  cpu time    9.7543: real time    9.8195

 eigenvalue-minimisations  :  6048
 total energy-change (2. order) :-0.6463558E+03  (-0.6105496E+03)
 number of electron     453.0000000 magnetization     103.4000000
 augmentation part      453.0000000 magnetization     103.4000000

 Free energy of the ion-electron system (eV)
  ---------------------------------------------------
  alpha Z        PSCENC =      1269.90711959
  Ewald energy   TEWEN  =    -29723.10741349
  -Hartree energ DENC   =    -23057.08533601
  -exchange      EXHF   =         0.00000000
  -V(xc)+E(xc)   XCENC  =      1709.55286006
  PAW double counting   =     44894.81802819   -47731.76596422
  entropy T*S    EENTRO =         0.00000000
  eigenvalues    EBANDS =     -4052.09095732
  atomic energy  EATOM  =     56403.09886247
  Solvation  Ediel_sol  =         0.00000000
  ---------------------------------------------------
  free energy    TOTEN  =      -286.67280072 eV

  energy without entropy =     -286.67280072  energy(sigma->0) =     -286.67280072


--------------------------------------------------------------------------------------------------------




--------------------------------------- Iteration      1(   4)  ---------------------------------------


     EDDAV:  cpu time   10.3912: real time   10.4610
 BZINTS: Fermi energy:  9.040300;453.000000 electrons
         Band energy:***********;  BLOECHL correction: -0.249967
       DOS:  cpu time    0.0032: real time    0.0032
    --------------------------------------------
      LOOP:  cpu time   10.3944: real time   10.4643

 eigenvalue-minimisations  :  6528
 total energy-change (2. order) :-0.3202030E+02  (-0.3170093E+02)
 number of electron     453.0000000 magnetization     103.4000000
 augmentation part      453.0000000 magnetization     103.4000000

 Free energy of the ion-electron system (eV)
  ---------------------------------------------------
  alpha Z        PSCENC =      1269.90711959
  Ewald energy   TEWEN  =    -29723.10741349
  -Hartree energ DENC   =    -23057.08533601
  -exchange      EXHF   =         0.00000000
  -V(xc)+E(xc)   XCENC  =      1709.55286006
  PAW double counting   =     44894.81802819   -47731.76596422
  entropy T*S    EENTRO =         0.00000000
  eigenvalues    EBANDS =     -4084.11125763
  atomic energy  EATOM  =     56403.09886247
  Solvation  Ediel_sol  =         0.00000000
  ---------------------------------------------------
  free energy    TOTEN  =      -318.69310103 eV

  energy without entropy =     -318.69310103  energy(sigma->0) =     -318.69310103


--------------------------------------------------------------------------------------------------------




--------------------------------------- Iteration      1(   5)  ---------------------------------------


     EDDAV:  cpu time   10.3117: real time   10.3825
 BZINTS: Fermi energy:  9.037458;453.000000 electrons
         Band energy:***********;  BLOECHL correction: -0.248330
       DOS:  cpu time    0.0033: real time    0.0033
    CHARGE:  cpu time    0.5178: real time    0.5216
    MIXING:  cpu time    0.0040: real time    0.0041
    --------------------------------------------
      LOOP:  cpu time   10.8368: real time   10.9115

 eigenvalue-minimisations  :  6480
 total energy-change (2. order) :-0.5783583E+00  (-0.5787405E+00)
 number of electron     452.9999419 magnetization      82.3066072
 augmentation part      110.9738622 magnetization      64.8464404

 Broyden mixing:
  rms(total) = 0.10058E+02    rms(broyden)= 0.10058E+02
  rms(prec ) = 0.11716E+02
  weight for this iteration     100.00

 Free energy of the ion-electron system (eV)
  ---------------------------------------------------
  alpha Z        PSCENC =      1269.90711959
  Ewald energy   TEWEN  =    -29723.10741349
  -Hartree energ DENC   =    -23057.08533601
  -exchange      EXHF   =         0.00000000
  -V(xc)+E(xc)   XCENC  =      1709.55286006
  PAW double counting   =     44894.81802819   -47731.76596422
  entropy T*S    EENTRO =         0.00000000
  eigenvalues    EBANDS =     -4084.68961590
  atomic energy  EATOM  =     56403.09886247
  Solvation  Ediel_sol  =         0.00000000
  ---------------------------------------------------
  free energy    TOTEN  =      -319.27145929 eV

  energy without entropy =     -319.27145929  energy(sigma->0) =     -319.27145929


--------------------------------------------------------------------------------------------------------




--------------------------------------- Iteration      1(   6)  ---------------------------------------


    POTLOK:  cpu time    0.0917: real time    0.0971
    SETDIJ:  cpu time    0.0130: real time    0.0131
     EDDAV:  cpu time    9.5793: real time    9.6412
 BZINTS: Fermi energy:  5.243589;453.000000 electrons
         Band energy:***********;  BLOECHL correction: -0.124431
       DOS:  cpu time    0.0063: real time    0.0064
    CHARGE:  cpu time    0.5013: real time    0.5044
    MIXING:  cpu time    0.0027: real time    0.0027
    --------------------------------------------
      LOOP:  cpu time   10.1943: real time   10.2649

 eigenvalue-minimisations  :  5952
 total energy-change (2. order) :-0.1392219E+03  (-0.5840906E+02)
 number of electron     452.9999181 magnetization      71.9139540
 augmentation part      168.8865396 magnetization      63.3106079

 Broyden mixing:
  rms(total) = 0.15952E+02    rms(broyden)= 0.15952E+02
  rms(prec ) = 0.19167E+02
  weight for this iteration     100.00

 eigenvalues of (default mixing * dielectric matrix)
  average eigenvalue GAMMA=   0.1321
  0.1321

 Free energy of the ion-electron system (eV)
  ---------------------------------------------------
  alpha Z        PSCENC =      1269.90711959
  Ewald energy   TEWEN  =    -29723.10741349
  -Hartree energ DENC   =    -21442.01700981
  -exchange      EXHF   =         0.00000000
  -V(xc)+E(xc)   XCENC  =      1650.08456693
  PAW double counting   =     49535.95293417   -52160.49176163
  entropy T*S    EENTRO =         0.00000000
  eigenvalues    EBANDS =     -5991.92064908
  atomic energy  EATOM  =     56403.09886247
  Solvation  Ediel_sol  =         0.00000000
  ---------------------------------------------------
  free energy    TOTEN  =      -458.49335085 eV

  energy without entropy =     -458.49335085  energy(sigma->0) =     -458.49335085


--------------------------------------------------------------------------------------------------------




--------------------------------------- Iteration      1(   7)  ---------------------------------------


    POTLOK:  cpu time    0.0959: real time    0.0979
    SETDIJ:  cpu time    0.0130: real time    0.0130
     EDDAV:  cpu time   10.2794: real time   10.3434
 BZINTS: Fermi energy:  5.956502;453.000000 electrons
         Band energy:***********;  BLOECHL correction: -0.217370
       DOS:  cpu time    0.0045: real time    0.0045
    CHARGE:  cpu time    0.5062: real time    0.5093
    MIXING:  cpu time    0.0024: real time    0.0024
    --------------------------------------------
      LOOP:  cpu time   10.9013: real time   10.9706

 eigenvalue-minimisations  :  6480
 total energy-change (2. order) : 0.1699956E+03  (-0.2689830E+02)
 number of electron     452.9999389 magnetization      48.5633333
 augmentation part      143.2086659 magnetization      44.5045375

 Broyden mixing:
  rms(total) = 0.58253E+01    rms(broyden)= 0.58230E+01
  rms(prec ) = 0.67227E+01
  weight for this iteration     100.00

 eigenvalues of (default mixing * dielectric matrix)
  average eigenvalue GAMMA=   0.5978
  0.5978  0.5978

 Free energy of the ion-electron system (eV)
  ---------------------------------------------------
  alpha Z        PSCENC =      1269.90711959
  Ewald energy   TEWEN  =    -29723.10741349
  -Hartree energ DENC   =    -22360.61164893
  -exchange      EXHF   =         0.00000000
  -V(xc)+E(xc)   XCENC  =      1668.46602832
  PAW double counting   =     52863.94789181   -55682.14787395
  entropy T*S    EENTRO =         0.00000000
  eigenvalues    EBANDS =     -4728.05070424
  atomic energy  EATOM  =     56403.09886247
  Solvation  Ediel_sol  =         0.00000000
  ---------------------------------------------------
  free energy    TOTEN  =      -288.49773842 eV

  energy without entropy =     -288.49773842  energy(sigma->0) =     -288.49773842


--------------------------------------------------------------------------------------------------------




--------------------------------------- Iteration      1(   8)  ---------------------------------------


    POTLOK:  cpu time    0.0911: real time    0.0960
    SETDIJ:  cpu time    0.0130: real time    0.0131
     EDDAV:  cpu time   10.4546: real time   10.5236
 BZINTS: Fermi energy:  6.718796;453.000000 electrons
         Band energy:***********;  BLOECHL correction: -0.343591
       DOS:  cpu time    0.0047: real time    0.0047
    CHARGE:  cpu time    0.5061: real time    0.5091
    MIXING:  cpu time    0.0025: real time    0.0026
    --------------------------------------------
      LOOP:  cpu time   11.0720: real time   11.1489

 eigenvalue-minimisations  :  6624
 total energy-change (2. order) :-0.1228494E+01  (-0.7362036E+01)
 number of electron     452.9999493 magnetization      18.0389182
 augmentation part      130.9606357 magnetization      16.7498956

 Broyden mixing:
  rms(total) = 0.28493E+01    rms(broyden)= 0.28471E+01
  rms(prec ) = 0.29236E+01
  weight for this iteration     100.00

 eigenvalues of (default mixing * dielectric matrix)
  average eigenvalue GAMMA=   0.8225
  1.3624  0.4425  0.6627

 Free energy of the ion-electron system (eV)
  ---------------------------------------------------
  alpha Z        PSCENC =      1269.90711959
  Ewald energy   TEWEN  =    -29723.10741349
  -Hartree energ DENC   =    -22684.91121850
  -exchange      EXHF   =         0.00000000
  -V(xc)+E(xc)   XCENC  =      1669.33767564
  PAW double counting   =     57921.91841330   -60774.41616720
  entropy T*S    EENTRO =         0.00000000
  eigenvalues    EBANDS =     -4371.55350392
  atomic energy  EATOM  =     56403.09886247
  Solvation  Ediel_sol  =         0.00000000
  ---------------------------------------------------
  free energy    TOTEN  =      -289.72623211 eV

  energy without entropy =     -289.72623211  energy(sigma->0) =     -289.72623211


--------------------------------------------------------------------------------------------------------




--------------------------------------- Iteration      1(   9)  ---------------------------------------


    POTLOK:  cpu time    0.0955: real time    0.0968
    SETDIJ:  cpu time    0.0130: real time    0.0130
     EDDAV:  cpu time   10.8075: real time   10.8768
 BZINTS: Fermi energy:  6.785908;453.000000 electrons
         Band energy:***********;  BLOECHL correction: -0.443147
       DOS:  cpu time    0.0054: real time    0.0054
    CHARGE:  cpu time    0.5112: real time    0.5144
    MIXING:  cpu time    0.0026: real time    0.0026
    --------------------------------------------
      LOOP:  cpu time   11.4351: real time   11.5090

 eigenvalue-minimisations  :  6816
 total energy-change (2. order) :-0.8411263E+01  (-0.2671214E+01)
 number of electron     452.9999473 magnetization      13.3694287
 augmentation part      133.3152136 magnetization      10.8942631

 Broyden mixing:
  rms(total) = 0.20183E+01    rms(broyden)= 0.20175E+01
  rms(prec ) = 0.26868E+01
  weight for this iteration     100.00

 eigenvalues of (default mixing * dielectric matrix)
  average eigenvalue GAMMA=   0.8070
  1.5193  0.7116  0.4986  0.4986

 Free energy of the ion-electron system (eV)
  ---------------------------------------------------
  alpha Z        PSCENC =      1269.90711959
  Ewald energy   TEWEN  =    -29723.10741349
  -Hartree energ DENC   =    -22644.08731830
  -exchange      EXHF   =         0.00000000
  -V(xc)+E(xc)   XCENC  =      1663.00538248
  PAW double counting   =     63138.92855183   -65970.94846385
  entropy T*S    EENTRO =         0.00000000
  eigenvalues    EBANDS =     -4434.93421563
  atomic energy  EATOM  =     56403.09886247
  Solvation  Ediel_sol  =         0.00000000
  ---------------------------------------------------
  free energy    TOTEN  =      -298.13749490 eV

  energy without entropy =     -298.13749490  energy(sigma->0) =     -298.13749490


--------------------------------------------------------------------------------------------------------




--------------------------------------- Iteration      1(  10)  ---------------------------------------


    POTLOK:  cpu time    0.0928: real time    0.0960
    SETDIJ:  cpu time    0.0129: real time    0.0129
     EDDAV:  cpu time    9.9163: real time    9.9857
 BZINTS: Fermi energy:  6.569593;453.000000 electrons
         Band energy:***********;  BLOECHL correction: -0.046526
       DOS:  cpu time    0.0049: real time    0.0049
    CHARGE:  cpu time    0.5038: real time    0.5082
    MIXING:  cpu time    0.0027: real time    0.0027
    --------------------------------------------
      LOOP:  cpu time   10.5334: real time   10.6105

 eigenvalue-minimisations  :  6192
 total energy-change (2. order) :-0.5474313E+01  (-0.2777523E+01)
 number of electron     452.9999466 magnetization      11.4568460
 augmentation part      131.6617902 magnetization      10.1480313

 Broyden mixing:
  rms(total) = 0.32330E+01    rms(broyden)= 0.32315E+01
  rms(prec ) = 0.47891E+01
  weight for this iteration     100.00

 eigenvalues of (default mixing * dielectric matrix)
  average eigenvalue GAMMA=   0.7053
  1.5489  0.7091  0.5375  0.5375  0.1934

 Free energy of the ion-electron system (eV)
  ---------------------------------------------------
  alpha Z        PSCENC =      1269.90711959
  Ewald energy   TEWEN  =    -29723.10741349
  -Hartree energ DENC   =    -22679.03746841
  -exchange      EXHF   =         0.00000000
  -V(xc)+E(xc)   XCENC  =      1663.06145529
  PAW double counting   =     63339.83354611   -66177.89007679
  entropy T*S    EENTRO =         0.00000000
  eigenvalues    EBANDS =     -4399.47783293
  atomic energy  EATOM  =     56403.09886247
  Solvation  Ediel_sol  =         0.00000000
  ---------------------------------------------------
  free energy    TOTEN  =      -303.61180816 eV

  energy without entropy =     -303.61180816  energy(sigma->0) =     -303.61180816


--------------------------------------------------------------------------------------------------------




--------------------------------------- Iteration      1(  11)  ---------------------------------------


    POTLOK:  cpu time    0.0911: real time    0.0970
    SETDIJ:  cpu time    0.0130: real time    0.0131
     EDDAV:  cpu time   10.3858: real time   10.4527
 BZINTS: Fermi energy:  6.959897;453.000000 electrons
         Band energy:***********;  BLOECHL correction: -0.534613
       DOS:  cpu time    0.0050: real time    0.0050
    CHARGE:  cpu time    0.5127: real time    0.5160
    MIXING:  cpu time    0.0027: real time    0.0027
    --------------------------------------------
      LOOP:  cpu time   11.0103: real time   11.0865

 eigenvalue-minimisations  :  6528
 total energy-change (2. order) : 0.4333294E+01  (-0.3829758E+01)
 number of electron     452.9999488 magnetization       7.4002859
 augmentation part      131.8798371 magnetization       5.6235181

 Broyden mixing:
  rms(total) = 0.58066E+00    rms(broyden)= 0.57672E+00
  rms(prec ) = 0.68063E+00
  weight for this iteration     100.00

 eigenvalues of (default mixing * dielectric matrix)
  average eigenvalue GAMMA=   0.7882
  1.4494  1.4494  0.6093  0.5305  0.5305  0.1601

 Free energy of the ion-electron system (eV)
  ---------------------------------------------------
  alpha Z        PSCENC =      1269.90711959
  Ewald energy   TEWEN  =    -29723.10741349
  -Hartree energ DENC   =    -22695.75422584
  -exchange      EXHF   =         0.00000000
  -V(xc)+E(xc)   XCENC  =      1663.40092814
  PAW double counting   =     63190.62433815   -66033.79066118
  entropy T*S    EENTRO =         0.00000000
  eigenvalues    EBANDS =     -4373.65746244
  atomic energy  EATOM  =     56403.09886247
  Solvation  Ediel_sol  =         0.00000000
  ---------------------------------------------------
  free energy    TOTEN  =      -299.27851459 eV

  energy without entropy =     -299.27851459  energy(sigma->0) =     -299.27851459


--------------------------------------------------------------------------------------------------------




--------------------------------------- Iteration      1(  12)  ---------------------------------------


    POTLOK:  cpu time    0.0928: real time    0.0965
    SETDIJ:  cpu time    0.0129: real time    0.0130
     EDDAV:  cpu time    9.9516: real time   10.0154
 BZINTS: Fermi energy:  6.945918;453.000000 electrons
         Band energy:***********;  BLOECHL correction: -0.514521
       DOS:  cpu time    0.0045: real time    0.0045
    CHARGE:  cpu time    0.5134: real time    0.5169
    MIXING:  cpu time    0.0029: real time    0.0029
    --------------------------------------------
      LOOP:  cpu time   10.5783: real time   10.6491

 eigenvalue-minimisations  :  6240
 total energy-change (2. order) :-0.6255409E+00  (-0.1467548E+00)
 number of electron     452.9999485 magnetization       3.5690490
 augmentation part      132.1125447 magnetization       2.3063859

 Broyden mixing:
  rms(total) = 0.35844E+00    rms(broyden)= 0.35822E+00
  rms(prec ) = 0.44350E+00
  weight for this iteration     100.00

 eigenvalues of (default mixing * dielectric matrix)
  average eigenvalue GAMMA=   0.8628
  1.6336  1.6336  0.7994  0.7994  0.5066  0.5066  0.1604

 Free energy of the ion-electron system (eV)
  ---------------------------------------------------
  alpha Z        PSCENC =      1269.90711959
  Ewald energy   TEWEN  =    -29723.10741349
  -Hartree energ DENC   =    -22697.12138743
  -exchange      EXHF   =         0.00000000
  -V(xc)+E(xc)   XCENC  =      1663.45987162
  PAW double counting   =     63033.06476371   -65877.59617787
  entropy T*S    EENTRO =         0.00000000
  eigenvalues    EBANDS =     -4371.60969413
  atomic energy  EATOM  =     56403.09886247
  Solvation  Ediel_sol  =         0.00000000
  ---------------------------------------------------
  free energy    TOTEN  =      -299.90405552 eV

  energy without entropy =     -299.90405552  energy(sigma->0) =     -299.90405552


--------------------------------------------------------------------------------------------------------




--------------------------------------- Iteration      1(  13)  ---------------------------------------


    POTLOK:  cpu time    0.0947: real time    0.0966
    SETDIJ:  cpu time    0.0129: real time    0.0130
     EDDAV:  cpu time   10.7340: real time   10.8049
 BZINTS: Fermi energy:  6.949541;453.000000 electrons
         Band energy:***********;  BLOECHL correction: -0.493300
       DOS:  cpu time    0.0047: real time    0.0047
    CHARGE:  cpu time    0.5077: real time    0.5108
    MIXING:  cpu time    0.0031: real time    0.0031
    --------------------------------------------
      LOOP:  cpu time   11.3572: real time   11.4331

 eigenvalue-minimisations  :  6768
 total energy-change (2. order) :-0.1396579E+00  (-0.3577068E-01)
 number of electron     452.9999484 magnetization       2.7987220
 augmentation part      132.1031207 magnetization       2.0143929

 Broyden mixing:
  rms(total) = 0.14559E+00    rms(broyden)= 0.14550E+00
  rms(prec ) = 0.15346E+00
  weight for this iteration     100.00

 eigenvalues of (default mixing * dielectric matrix)
  average eigenvalue GAMMA=   0.8886
  1.7670  1.7670  0.8898  0.8898  0.5114  0.5114  0.6120  0.1604

 Free energy of the ion-electron system (eV)
  ---------------------------------------------------
  alpha Z        PSCENC =      1269.90711959
  Ewald energy   TEWEN  =    -29723.10741349
  -Hartree energ DENC   =    -22706.37079386
  -exchange      EXHF   =         0.00000000
  -V(xc)+E(xc)   XCENC  =      1663.73726896
  PAW double counting   =     63097.93240576   -65942.61508313
  entropy T*S    EENTRO =         0.00000000
  eigenvalues    EBANDS =     -4362.62607971
  atomic energy  EATOM  =     56403.09886247
  Solvation  Ediel_sol  =         0.00000000
  ---------------------------------------------------
  free energy    TOTEN  =      -300.04371341 eV

  energy without entropy =     -300.04371341  energy(sigma->0) =     -300.04371341


--------------------------------------------------------------------------------------------------------




--------------------------------------- Iteration      1(  14)  ---------------------------------------


    POTLOK:  cpu time    0.0921: real time    0.0965
    SETDIJ:  cpu time    0.0129: real time    0.0129
     EDDAV:  cpu time   10.0846: real time   10.1500
 BZINTS: Fermi energy:  6.957837;453.000000 electrons
         Band energy:***********;  BLOECHL correction: -0.498964
       DOS:  cpu time    0.0047: real time    0.0048
    CHARGE:  cpu time    0.5077: real time    0.5110
    MIXING:  cpu time    0.0032: real time    0.0032
    --------------------------------------------
      LOOP:  cpu time   10.7052: real time   10.7784

 eigenvalue-minimisations  :  6288
 total energy-change (2. order) :-0.2140628E-01  (-0.4823640E-02)
 number of electron     452.9999485 magnetization       2.4039127
 augmentation part      132.0246807 magnetization       1.7309912

 Broyden mixing:
  rms(total) = 0.88988E-01    rms(broyden)= 0.88951E-01
  rms(prec ) = 0.92042E-01
  weight for this iteration     100.00

 eigenvalues of (default mixing * dielectric matrix)
  average eigenvalue GAMMA=   0.9404
  2.1560  1.6232  1.1204  1.1204  0.5099  0.5099  0.6318  0.6318  0.1604

 Free energy of the ion-electron system (eV)
  ---------------------------------------------------
  alpha Z        PSCENC =      1269.90711959
  Ewald energy   TEWEN  =    -29723.10741349
  -Hartree energ DENC   =    -22710.40283346
  -exchange      EXHF   =         0.00000000
  -V(xc)+E(xc)   XCENC  =      1663.82222401
  PAW double counting   =     63120.39133086   -65964.69947027
  entropy T*S    EENTRO =         0.00000000
  eigenvalues    EBANDS =     -4359.07493940
  atomic energy  EATOM  =     56403.09886247
  Solvation  Ediel_sol  =         0.00000000
  ---------------------------------------------------
  free energy    TOTEN  =      -300.06511969 eV

  energy without entropy =     -300.06511969  energy(sigma->0) =     -300.06511969


--------------------------------------------------------------------------------------------------------




--------------------------------------- Iteration      1(  15)  ---------------------------------------


    POTLOK:  cpu time    0.0939: real time    0.0969
    SETDIJ:  cpu time    0.0128: real time    0.0129
     EDDAV:  cpu time   10.8603: real time   10.9275
 BZINTS: Fermi energy:  6.957966;453.000000 electrons
         Band energy:***********;  BLOECHL correction: -0.504200
       DOS:  cpu time    0.0045: real time    0.0046
    CHARGE:  cpu time    0.5114: real time    0.5146
    MIXING:  cpu time    0.0031: real time    0.0032
    --------------------------------------------
      LOOP:  cpu time   11.4862: real time   11.5597

 eigenvalue-minimisations  :  6864
 total energy-change (2. order) :-0.9048374E-02  (-0.6288069E-03)
 number of electron     452.9999485 magnetization       2.1186322
 augmentation part      132.0460219 magnetization       1.5041730

 Broyden mixing:
  rms(total) = 0.56369E-01    rms(broyden)= 0.56331E-01
  rms(prec ) = 0.58983E-01
  weight for this iteration     100.00

 eigenvalues of (default mixing * dielectric matrix)
  average eigenvalue GAMMA=   0.9436
  2.3851  1.3598  1.2076  1.2076  0.7599  0.7599  0.5147  0.5147  0.5665  0.1604

 Free energy of the ion-electron system (eV)
  ---------------------------------------------------
  alpha Z        PSCENC =      1269.90711959
  Ewald energy   TEWEN  =    -29723.10741349
  -Hartree energ DENC   =    -22710.41735112
  -exchange      EXHF   =         0.00000000
  -V(xc)+E(xc)   XCENC  =      1663.79905309
  PAW double counting   =     63157.17659943   -66000.95801537
  entropy T*S    EENTRO =         0.00000000
  eigenvalues    EBANDS =     -4359.57302267
  atomic energy  EATOM  =     56403.09886247
  Solvation  Ediel_sol  =         0.00000000
  ---------------------------------------------------
  free energy    TOTEN  =      -300.07416807 eV

  energy without entropy =     -300.07416807  energy(sigma->0) =     -300.07416807


--------------------------------------------------------------------------------------------------------




--------------------------------------- Iteration      1(  16)  ---------------------------------------


    POTLOK:  cpu time    0.0951: real time    0.0967
    SETDIJ:  cpu time    0.0128: real time    0.0129
     EDDAV:  cpu time   10.2364: real time   10.3043
 BZINTS: Fermi energy:  6.960077;453.000000 electrons
         Band energy:***********;  BLOECHL correction: -0.507944
       DOS:  cpu time    0.0044: real time    0.0044
    CHARGE:  cpu time    0.5106: real time    0.5144
    MIXING:  cpu time    0.0039: real time    0.0039
    --------------------------------------------
      LOOP:  cpu time   10.8634: real time   10.9367

 eigenvalue-minimisations  :  6432
 total energy-change (2. order) :-0.6063513E-02  (-0.2474343E-03)
 number of electron     452.9999485 magnetization       1.9920151
 augmentation part      132.0409329 magnetization       1.4312981

 Broyden mixing:
  rms(total) = 0.41789E-01    rms(broyden)= 0.41733E-01
  rms(prec ) = 0.44782E-01
  weight for this iteration     100.00

 eigenvalues of (default mixing * dielectric matrix)
  average eigenvalue GAMMA=   0.9875
  2.4566  1.4694  1.3614  1.3614  0.8994  0.8994  0.1604  0.5122  0.5122  0.6151
  0.6151

 Free energy of the ion-electron system (eV)
  ---------------------------------------------------
  alpha Z        PSCENC =      1269.90711959
  Ewald energy   TEWEN  =    -29723.10741349
  -Hartree energ DENC   =    -22711.07627064
  -exchange      EXHF   =         0.00000000
  -V(xc)+E(xc)   XCENC  =      1663.80976789
  PAW double counting   =     63163.72693718   -66007.31655802
  entropy T*S    EENTRO =         0.00000000
  eigenvalues    EBANDS =     -4359.12267656
  atomic energy  EATOM  =     56403.09886247
  Solvation  Ediel_sol  =         0.00000000
  ---------------------------------------------------
  free energy    TOTEN  =      -300.08023158 eV

  energy without entropy =     -300.08023158  energy(sigma->0) =     -300.08023158


--------------------------------------------------------------------------------------------------------




--------------------------------------- Iteration      1(  17)  ---------------------------------------


    POTLOK:  cpu time    0.0934: real time    0.0962
    SETDIJ:  cpu time    0.0130: real time    0.0130
     EDDAV:  cpu time   10.9427: real time   11.0139
 BZINTS: Fermi energy:  6.961512;453.000000 electrons
         Band energy:***********;  BLOECHL correction: -0.510171
       DOS:  cpu time    0.0045: real time    0.0045
    CHARGE:  cpu time    0.5153: real time    0.5184
    MIXING:  cpu time    0.0036: real time    0.0036
    --------------------------------------------
      LOOP:  cpu time   11.5724: real time   11.6496

 eigenvalue-minimisations  :  6912
 total energy-change (2. order) :-0.3334746E-02  (-0.8622643E-04)
 number of electron     452.9999485 magnetization       1.7348814
 augmentation part      132.0293485 magnetization       1.2083558

 Broyden mixing:
  rms(total) = 0.32908E-01    rms(broyden)= 0.32863E-01
  rms(prec ) = 0.34579E-01
  weight for this iteration     100.00

 eigenvalues of (default mixing * dielectric matrix)
  average eigenvalue GAMMA=   1.0879
  2.7427  1.7957  1.7957  1.4300  1.0735  1.0735  0.1604  0.5130  0.5130  0.6852
  0.6852  0.5865

 Free energy of the ion-electron system (eV)
  ---------------------------------------------------
  alpha Z        PSCENC =      1269.90711959
  Ewald energy   TEWEN  =    -29723.10741349
  -Hartree energ DENC   =    -22711.38714852
  -exchange      EXHF   =         0.00000000
  -V(xc)+E(xc)   XCENC  =      1663.81645559
  PAW double counting   =     63147.69219106   -65991.25279486
  entropy T*S    EENTRO =         0.00000000
  eigenvalues    EBANDS =     -4358.85083817
  atomic energy  EATOM  =     56403.09886247
  Solvation  Ediel_sol  =         0.00000000
  ---------------------------------------------------
  free energy    TOTEN  =      -300.08356633 eV

  energy without entropy =     -300.08356633  energy(sigma->0) =     -300.08356633


--------------------------------------------------------------------------------------------------------




--------------------------------------- Iteration      1(  18)  ---------------------------------------


    POTLOK:  cpu time    0.0969: real time    0.0975
    SETDIJ:  cpu time    0.0131: real time    0.0132
     EDDAV:  cpu time   10.6907: real time   10.7589
 BZINTS: Fermi energy:  6.963029;453.000000 electrons
         Band energy:***********;  BLOECHL correction: -0.513150
       DOS:  cpu time    0.0046: real time    0.0046
    CHARGE:  cpu time    0.5145: real time    0.5175
    MIXING:  cpu time    0.0035: real time    0.0035
    --------------------------------------------
      LOOP:  cpu time   11.3232: real time   11.3953

 eigenvalue-minimisations  :  6768
 total energy-change (2. order) :-0.4310411E-02  (-0.1322182E-03)
 number of electron     452.9999485 magnetization       1.4599673
 augmentation part      132.0193248 magnetization       0.9900291

 Broyden mixing:
  rms(total) = 0.20989E-01    rms(broyden)= 0.20849E-01
  rms(prec ) = 0.21274E-01
  weight for this iteration     100.00

 eigenvalues of (default mixing * dielectric matrix)
  average eigenvalue GAMMA=   1.1801
  3.8967  2.0000  2.0000  1.2340  1.2340  1.0203  0.1604  0.7873  0.7873  0.5130
  0.5130  0.6075  0.5878

 Free energy of the ion-electron system (eV)
  ---------------------------------------------------
  alpha Z        PSCENC =      1269.90711959
  Ewald energy   TEWEN  =    -29723.10741349
  -Hartree energ DENC   =    -22711.72134906
  -exchange      EXHF   =         0.00000000
  -V(xc)+E(xc)   XCENC  =      1663.81721931
  PAW double counting   =     63133.50229082   -65976.99735872
  entropy T*S    EENTRO =         0.00000000
  eigenvalues    EBANDS =     -4358.58724765
  atomic energy  EATOM  =     56403.09886247
  Solvation  Ediel_sol  =         0.00000000
  ---------------------------------------------------
  free energy    TOTEN  =      -300.08787674 eV

  energy without entropy =     -300.08787674  energy(sigma->0) =     -300.08787674


--------------------------------------------------------------------------------------------------------




--------------------------------------- Iteration      1(  19)  ---------------------------------------


    POTLOK:  cpu time    0.0917: real time    0.0967
    SETDIJ:  cpu time    0.0129: real time    0.0130
     EDDAV:  cpu time   10.9801: real time   11.0503
 BZINTS: Fermi energy:  6.964572;453.000000 electrons
         Band energy:***********;  BLOECHL correction: -0.516252
       DOS:  cpu time    0.0050: real time    0.0050
    CHARGE:  cpu time    0.5129: real time    0.5161
    MIXING:  cpu time    0.0036: real time    0.0037
    --------------------------------------------
      LOOP:  cpu time   11.6064: real time   11.6848

 eigenvalue-minimisations  :  6912
 total energy-change (2. order) :-0.3970887E-02  (-0.1487993E-03)
 number of electron     452.9999485 magnetization       1.2260017
 augmentation part      132.0107286 magnetization       0.8179172

 Broyden mixing:
  rms(total) = 0.14416E-01    rms(broyden)= 0.14178E-01
  rms(prec ) = 0.14406E-01
  weight for this iteration     100.00

 eigenvalues of (default mixing * dielectric matrix)
  average eigenvalue GAMMA=   1.2276
  4.9417  2.0775  2.0775  1.2413  1.2413  0.1604  0.9200  0.9200  0.5132  0.5132
  0.7387  0.6917  0.5748  0.5748

 Free energy of the ion-electron system (eV)
  ---------------------------------------------------
  alpha Z        PSCENC =      1269.90711959
  Ewald energy   TEWEN  =    -29723.10741349
  -Hartree energ DENC   =    -22711.99516057
  -exchange      EXHF   =         0.00000000
  -V(xc)+E(xc)   XCENC  =      1663.81769408
  PAW double counting   =     63120.17458436   -65963.63766447
  entropy T*S    EENTRO =         0.00000000
  eigenvalues    EBANDS =     -4358.34986959
  atomic energy  EATOM  =     56403.09886247
  Solvation  Ediel_sol  =         0.00000000
  ---------------------------------------------------
  free energy    TOTEN  =      -300.09184762 eV

  energy without entropy =     -300.09184762  energy(sigma->0) =     -300.09184762


--------------------------------------------------------------------------------------------------------




--------------------------------------- Iteration      1(  20)  ---------------------------------------


    POTLOK:  cpu time    0.0933: real time    0.0961
    SETDIJ:  cpu time    0.0128: real time    0.0129
     EDDAV:  cpu time   11.6006: real time   11.6747
 BZINTS: Fermi energy:  6.965150;453.000000 electrons
         Band energy:***********;  BLOECHL correction: -0.518352
       DOS:  cpu time    0.0044: real time    0.0044
    CHARGE:  cpu time    0.5153: real time    0.5188
    MIXING:  cpu time    0.0037: real time    0.0038
    --------------------------------------------
      LOOP:  cpu time   12.2302: real time   12.3107

 eigenvalue-minimisations  :  7392
 total energy-change (2. order) :-0.2768389E-02  (-0.5476508E-04)
 number of electron     452.9999485 magnetization       1.0625802
 augmentation part      132.0090027 magnetization       0.7130500

 Broyden mixing:
  rms(total) = 0.10553E-01    rms(broyden)= 0.10297E-01
  rms(prec ) = 0.11136E-01
  weight for this iteration     100.00

 eigenvalues of (default mixing * dielectric matrix)
  average eigenvalue GAMMA=   1.3040
  5.7895  2.1691  2.1691  1.2895  1.2895  1.0027  1.0027  0.1604  0.8402  0.8402
  0.5131  0.5131  0.7628  0.6089  0.6089

 Free energy of the ion-electron system (eV)
  ---------------------------------------------------
  alpha Z        PSCENC =      1269.90711959
  Ewald energy   TEWEN  =    -29723.10741349
  -Hartree energ DENC   =    -22711.98377655
  -exchange      EXHF   =         0.00000000
  -V(xc)+E(xc)   XCENC  =      1663.81317824
  PAW double counting   =     63111.14488855   -65954.61027928
  entropy T*S    EENTRO =         0.00000000
  eigenvalues    EBANDS =     -4358.35719554
  atomic energy  EATOM  =     56403.09886247
  Solvation  Ediel_sol  =         0.00000000
  ---------------------------------------------------
  free energy    TOTEN  =      -300.09461601 eV

  energy without entropy =     -300.09461601  energy(sigma->0) =     -300.09461601


[...]
   0.274E+01 0.274E+01 0.274E+01   -.296E+01 -.296E+01 -.296E+01   0.225E+00 0.225E+00 0.225E+00   0.488E-03 0.488E-03 0.488E-03
   0.873E-13 0.424E-13 0.174E-11   -.107E-13 0.488E-14 -.711E-14   -.860E-20 -.552E-19 -.107E-20   -.135E-12 -.108E-12 -.159E-11
   0.725E-13 0.822E-12 -.226E-12   -.284E-13 -.355E-14 0.107E-13   -.666E-19 0.770E-20 0.343E-19   0.494E-12 0.546E-12 -.321E-12
   -.274E+01 -.274E+01 0.274E+01   0.296E+01 0.296E+01 -.296E+01   -.225E+00 -.225E+00 0.225E+00   -.488E-03 -.488E-03 0.488E-03
   -.274E+01 0.274E+01 -.274E+01   0.296E+01 -.296E+01 0.296E+01   -.225E+00 0.225E+00 -.225E+00   -.488E-03 0.488E-03 -.488E-03
   0.274E+01 -.274E+01 -.274E+01   -.296E+01 0.296E+01 0.296E+01   0.225E+00 -.225E+00 -.225E+00   0.488E-03 -.488E-03 -.488E-03
   0.417E+02 0.198E+02 0.417E+02   -.420E+02 -.173E+02 -.420E+02   0.237E+00 -.247E+01 0.237E+00   0.416E-02 0.563E-03 0.416E-02
   -.417E+02 -.198E+02 0.417E+02   0.420E+02 0.173E+02 -.420E+02   -.237E+00 0.247E+01 0.237E+00   -.416E-02 -.563E-03 0.416E-02
   -.316E+01 0.316E+01 -.316E+01   0.332E+01 -.332E+01 0.332E+01   -.164E+00 0.164E+00 -.164E+00   0.504E-02 -.504E-02 0.504E-02
   0.316E+01 -.316E+01 -.316E+01   -.332E+01 0.332E+01 0.332E+01   0.164E+00 -.164E+00 -.164E+00   -.504E-02 0.504E-02 0.504E-02
   0.417E+02 -.417E+02 -.198E+02   -.420E+02 0.420E+02 0.173E+02   0.237E+00 -.237E+00 0.247E+01   0.416E-02 -.416E-02 -.563E-03
   -.417E+02 0.417E+02 -.198E+02   0.420E+02 -.420E+02 0.173E+02   -.237E+00 0.237E+00 0.247E+01   -.416E-02 0.416E-02 -.563E-03
   -.198E+02 -.417E+02 0.417E+02   0.173E+02 0.420E+02 -.420E+02   0.247E+01 -.237E+00 0.237E+00   -.563E-03 -.416E-02 0.416E-02
   0.198E+02 0.417E+02 0.417E+02   -.173E+02 -.420E+02 -.420E+02   -.247E+01 0.237E+00 0.237E+00   0.563E-03 0.416E-02 0.416E-02
   -.316E+01 -.316E+01 0.316E+01   0.332E+01 0.332E+01 -.332E+01   -.164E+00 -.164E+00 0.164E+00   0.504E-02 0.504E-02 -.504E-02
   -.198E+02 0.417E+02 -.417E+02   0.173E+02 -.420E+02 0.420E+02   0.247E+01 0.237E+00 -.237E+00   -.563E-03 0.416E-02 -.416E-02
   0.417E+02 0.417E+02 0.198E+02   -.420E+02 -.420E+02 -.173E+02   0.237E+00 0.237E+00 -.247E+01   0.416E-02 0.416E-02 0.563E-03
   0.417E+02 -.198E+02 -.417E+02   -.420E+02 0.173E+02 0.420E+02   0.237E+00 0.247E+01 -.237E+00   0.416E-02 -.563E-03 -.416E-02
   -.417E+02 -.417E+02 0.198E+02   0.420E+02 0.420E+02 -.173E+02   -.237E+00 -.237E+00 -.247E+01   -.416E-02 -.416E-02 0.563E-03
   -.417E+02 0.198E+02 -.417E+02   0.420E+02 -.173E+02 0.420E+02   -.237E+00 -.247E+01 -.237E+00   -.416E-02 0.563E-03 -.416E-02
   0.316E+01 0.316E+01 0.316E+01   -.332E+01 -.332E+01 -.332E+01   0.164E+00 0.164E+00 0.164E+00   -.504E-02 -.504E-02 -.504E-02
   0.198E+02 -.417E+02 -.417E+02   -.173E+02 0.420E+02 0.420E+02   -.247E+01 -.237E+00 -.237E+00   0.563E-03 -.416E-02 -.416E-02
   -.175E+03 -.188E+03 0.175E+03   0.175E+03 0.188E+03 -.175E+03   -.737E-01 0.464E+00 0.737E-01   0.167E-02 -.559E-03 -.167E-02
   0.190E+03 -.190E+03 0.198E+03   -.190E+03 0.190E+03 -.197E+03   0.115E+00 -.115E+00 -.267E+00   -.941E-03 0.941E-03 0.204E-02
   0.191E+03 -.191E+03 -.191E+03   -.191E+03 0.191E+03 0.191E+03   -.129E+00 0.129E+00 0.129E+00   0.213E-02 -.213E-02 -.213E-02
   -.198E+03 -.190E+03 -.190E+03   0.197E+03 0.190E+03 0.190E+03   0.267E+00 -.115E+00 -.115E+00   -.204E-02 0.941E-03 0.941E-03
   -.175E+03 0.175E+03 -.188E+03   0.175E+03 -.175E+03 0.188E+03   -.737E-01 0.737E-01 0.464E+00   0.167E-02 -.167E-02 -.559E-03
   0.190E+03 0.198E+03 -.190E+03   -.190E+03 -.197E+03 0.190E+03   0.115E+00 -.267E+00 -.115E+00   -.941E-03 0.204E-02 0.941E-03
   0.188E+03 0.175E+03 0.175E+03   -.188E+03 -.175E+03 -.175E+03   -.464E+00 0.737E-01 0.737E-01   0.559E-03 -.167E-02 -.167E-02
   -.222E+03 0.222E+03 0.222E+03   0.226E+03 -.226E+03 -.226E+03   -.342E+01 0.342E+01 0.342E+01   -.121E-02 0.121E-02 0.121E-02
   -.175E+03 -.175E+03 0.188E+03   0.175E+03 0.175E+03 -.188E+03   -.737E-01 -.737E-01 -.464E+00   0.167E-02 0.167E-02 0.559E-03
   -.190E+03 -.190E+03 -.198E+03   0.190E+03 0.190E+03 0.197E+03   -.115E+00 -.115E+00 0.267E+00   0.941E-03 0.941E-03 -.204E-02
   -.175E+03 0.188E+03 -.175E+03   0.175E+03 -.188E+03 0.175E+03   -.737E-01 -.464E+00 -.737E-01   0.167E-02 0.559E-03 0.167E-02
   -.190E+03 0.198E+03 0.190E+03   0.190E+03 -.197E+03 -.190E+03   -.115E+00 -.267E+00 0.115E+00   0.941E-03 0.204E-02 -.941E-03
   0.191E+03 0.191E+03 0.191E+03   -.191E+03 -.191E+03 -.191E+03   -.129E+00 -.129E+00 -.129E+00   0.213E-02 0.213E-02 0.213E-02
   0.222E+03 0.222E+03 -.222E+03   -.226E+03 -.226E+03 0.226E+03   0.342E+01 0.342E+01 -.342E+01   0.121E-02 0.121E-02 -.121E-02
   0.188E+03 -.175E+03 -.175E+03   -.188E+03 0.175E+03 0.175E+03   -.464E+00 -.737E-01 -.737E-01   0.559E-03 0.167E-02 0.167E-02
   0.198E+03 -.190E+03 0.190E+03   -.197E+03 0.190E+03 -.190E+03   -.267E+00 -.115E+00 0.115E+00   0.204E-02 0.941E-03 -.941E-03
   -.191E+03 -.191E+03 0.191E+03   0.191E+03 0.191E+03 -.191E+03   0.129E+00 0.129E+00 -.129E+00   -.213E-02 -.213E-02 0.213E-02
   -.190E+03 0.190E+03 0.198E+03   0.190E+03 -.190E+03 -.197E+03   -.115E+00 0.115E+00 -.267E+00   0.941E-03 -.941E-03 0.204E-02
   0.175E+03 0.175E+03 0.188E+03   -.175E+03 -.175E+03 -.188E+03   0.737E-01 0.737E-01 -.464E+00   -.167E-02 -.167E-02 0.559E-03
   0.222E+03 -.222E+03 0.222E+03   -.226E+03 0.226E+03 -.226E+03   0.342E+01 -.342E+01 0.342E+01   0.121E-02 -.121E-02 0.121E-02
   0.175E+03 -.188E+03 -.175E+03   -.175E+03 0.188E+03 0.175E+03   0.737E-01 0.464E+00 -.737E-01   -.167E-02 -.559E-03 0.167E-02
   0.198E+03 0.190E+03 -.190E+03   -.197E+03 -.190E+03 0.190E+03   -.267E+00 0.115E+00 -.115E+00   0.204E-02 -.941E-03 0.941E-03
   -.188E+03 0.175E+03 -.175E+03   0.188E+03 -.175E+03 0.175E+03   0.464E+00 0.737E-01 -.737E-01   -.559E-03 -.167E-02 0.167E-02
   -.190E+03 -.198E+03 -.190E+03   0.190E+03 0.197E+03 0.190E+03   -.115E+00 0.267E+00 -.115E+00   0.941E-03 -.204E-02 0.941E-03
   -.188E+03 -.175E+03 0.175E+03   0.188E+03 0.175E+03 -.175E+03   0.464E+00 -.737E-01 0.737E-01   -.559E-03 0.167E-02 -.167E-02
   0.175E+03 -.175E+03 -.188E+03   -.175E+03 0.175E+03 0.188E+03   0.737E-01 -.737E-01 0.464E+00   -.167E-02 0.167E-02 -.559E-03
   -.191E+03 0.191E+03 -.191E+03   0.191E+03 -.191E+03 0.191E+03   0.129E+00 -.129E+00 0.129E+00   -.213E-02 0.213E-02 -.213E-02
   0.175E+03 0.188E+03 0.175E+03   -.175E+03 -.188E+03 -.175E+03   0.737E-01 -.464E+00 0.737E-01   -.167E-02 0.559E-03 -.167E-02
   -.222E+03 -.222E+03 -.222E+03   0.226E+03 0.226E+03 0.226E+03   -.342E+01 -.342E+01 -.342E+01   -.121E-02 -.121E-02 -.121E-02
   -.198E+03 0.190E+03 0.190E+03   0.197E+03 -.190E+03 -.190E+03   0.267E+00 0.115E+00 0.115E+00   -.204E-02 -.941E-03 -.941E-03
   0.190E+03 0.190E+03 -.198E+03   -.190E+03 -.190E+03 0.197E+03   0.115E+00 0.115E+00 0.267E+00   -.941E-03 -.941E-03 -.204E-02
   0.190E+03 -.198E+03 0.190E+03   -.190E+03 0.197E+03 -.190E+03   0.115E+00 0.267E+00 0.115E+00   -.941E-03 -.204E-02 -.941E-03
 -----------------------------------------------------------------------------------------------
   -.114E-05 -.114E-05 -.153E-06   0.114E-12 0.313E-12 -.199E-12   -.749E-15 0.278E-14 -.777E-15   -.588E-11 -.341E-10 0.771E-10
 
 
 POSITION                                       TOTAL-FORCE (eV/Angst)
 -----------------------------------------------------------------------------------
     -0.00000      0.00000     -0.00000        -0.000000     -0.000000      0.000000
      2.38308      7.18444      7.18444         0.003666      0.003666      0.003666
      4.80136      0.00000      4.80136        -0.000000     -0.000000      0.000000
      4.80136      4.80136     -0.00000        -0.000000     -0.000000      0.000000
      7.21965      2.41828      7.18444        -0.003666     -0.003666      0.003666
      7.21965      7.18444      2.41828        -0.003666      0.003666     -0.003666
      2.38308      2.41828      2.41828         0.003666     -0.003666     -0.003666
      1.22229      1.21202      6.02365         0.001108     -0.000634      0.001108
      8.38044      8.39071      6.02365        -0.001108      0.000634      0.001108
      3.60358      1.19778      8.40495         0.001989     -0.001989      0.001989
      5.99914      8.40495      8.40495        -0.001989      0.001989      0.001989
      1.22229      3.57908      8.39071         0.001108     -0.001108      0.000634
      8.38044      6.02365      8.39071        -0.001108      0.001108      0.000634
      3.58935      3.57908      6.02365         0.000634     -0.001108      0.001108
      6.01338      6.02365      6.02365        -0.000634      0.001108      0.001108
      3.60358      8.40495      1.19778         0.001989      0.001989     -0.001989
      3.58935      6.02365      3.57908         0.000634      0.001108     -0.001108
      1.22229      6.02365      1.21202         0.001108      0.001108     -0.000634
      1.22229      8.39071      3.57908         0.001108      0.000634     -0.001108
      8.38044      3.57908      1.21202        -0.001108     -0.001108     -0.000634
      8.38044      1.21202      3.57908        -0.001108     -0.000634     -0.001108
      5.99914      1.19778      1.19778        -0.001989     -0.001989     -0.001989
      6.01338      3.57908      3.57908        -0.000634     -0.001108     -0.001108
      1.06020      1.09119      3.74116         0.003427     -0.001547     -0.003427
      6.12750      8.27659      6.14297        -0.000727      0.000727      0.001503
      3.72392      1.07744      1.07744         0.001266     -0.001266     -0.001266
      8.26112      8.27659      8.27659        -0.001503      0.000727      0.000727
      1.06020      3.74116      1.09119         0.003427     -0.003427     -0.001547
      6.12750      6.14297      8.27659        -0.000727      0.001503      0.000727
      3.71018      3.74116      3.74116         0.001547     -0.003427     -0.003427
      8.24038      6.16370      6.16370         0.000819     -0.000819     -0.000819
      1.06020      5.86156      8.51154         0.003427      0.003427      0.001547
      3.47523      8.27659      3.45975         0.000727      0.000727     -0.001503
      1.06020      8.51154      5.86156         0.003427      0.001547      0.003427
      3.47523      6.14297      1.32613         0.000727      0.001503     -0.000727
      3.72392      8.52528      8.52528         0.001266      0.001266      0.001266
      1.36234      6.16370      3.43902        -0.000819     -0.000819      0.000819
      3.71018      5.86156      5.86156         0.001547      0.003427      0.003427
      1.34161      8.27659      1.32613         0.001503      0.000727     -0.000727
      5.87880      1.07744      8.52528        -0.001266     -0.001266      0.001266
      3.47523      1.32613      6.14297         0.000727     -0.000727      0.001503
      8.54252      3.74116      8.51154        -0.003427     -0.003427      0.001547
      1.36234      3.43902      6.16370        -0.000819      0.000819     -0.000819
      8.54252      1.09119      5.86156        -0.003427     -0.001547      0.003427
      1.34161      1.32613      8.27659         0.001503     -0.000727      0.000727
      5.89255      3.74116      5.86156        -0.001547     -0.003427      0.003427
      3.47523      3.45975      8.27659         0.000727     -0.001503      0.000727
      5.89255      5.86156      3.74116        -0.001547      0.003427     -0.003427
      8.54252      5.86156      1.09119        -0.003427      0.003427     -0.001547
      5.87880      8.52528      1.07744        -0.001266      0.001266     -0.001266
      8.54252      8.51154      3.74116        -0.003427      0.001547     -0.003427
      8.24038      3.43902      3.43902         0.000819      0.000819      0.000819
      8.26112      1.32613      1.32613        -0.001503     -0.000727     -0.000727
      6.12750      1.32613      3.45975        -0.000727     -0.000727     -0.001503
      6.12750      3.45975      1.32613        -0.000727     -0.001503     -0.000727
 -----------------------------------------------------------------------------------
    total drift:                               -0.000001     -0.000001     -0.000000


--------------------------------------------------------------------------------------------------------



  FREE ENERGIE OF THE ION-ELECTRON SYSTEM (eV)
  ---------------------------------------------------
  free  energy   TOTEN  =      -300.27249070 eV

  energy  without entropy=     -300.27249070  energy(sigma->0) =     -300.27249070
 
 d Force = 0.2278574E-03[ 0.920E-04, 0.364E-03]  d Energy = 0.3820940E-03-0.154E-03
 d Force =-0.2754993E+01[-0.276E+01,-0.275E+01]  d Ewald  =-0.2754992E+01-0.787E-06


--------------------------------------------------------------------------------------------------------


    POTLOK:  cpu time    0.1022: real time    0.1030


--------------------------------------------------------------------------------------------------------


 Conjugate gradient step on ions:
 trial-energy change:   -0.000382  1 .order   -0.000228   -0.000364   -0.000092
  (g-gl).g = 0.145E-03      g.g   = 0.234E-03  gl.gl    = 0.203E-02
 g(Force)  = 0.234E-03   g(Stress)= 0.000E+00 ortho     =-0.116E-04
 gamma     =   0.07169
 trial     =   1.55801
 opt step  =   1.67140  (harmonic =   2.08577) maximal distance =0.00084474
 next E    =  -300.272494   (d E  =  -0.00039)


--------------------------------------------------------------------------------------------------------


  
 reached required accuracy - stopping structural energy minimisation
     LOOP+:  cpu time   79.0405: real time   79.5726
    4ORBIT:  cpu time    0.0000: real time    0.0000
 


 total charge     
 
# of ion       s       p       d       tot
------------------------------------------
    1        0.387   0.361   0.000   0.747
    2        0.387   0.362   0.000   0.749
    3        0.385   0.360   0.000   0.745
    4        0.387   0.361   0.000   0.748
    5        0.387   0.362   0.000   0.748
    6        0.387   0.362   0.000   0.748
    7        0.387   0.362   0.000   0.749
    8        0.418   6.520   7.391  14.329
    9        0.418   6.520   7.391  14.329
   10        0.412   6.511   7.430  14.353
   11        0.412   6.511   7.427  14.350
   12        0.418   6.519   7.387  14.324
   13        0.419   6.519   7.388  14.325
   14        0.417   6.519   7.467  14.402
   15        0.417   6.519   7.464  14.400
   16        0.412   6.511   7.428  14.351
   17        0.417   6.519   7.467  14.403
   18        0.418   6.519   7.385  14.323
   19        0.418   6.520   7.391  14.329
   20        0.419   6.519   7.386  14.323
   21        0.418   6.520   7.392  14.330
   22        0.412   6.511   7.426  14.349
   23        0.417   6.519   7.464  14.400
   24        1.328   2.386   0.000   3.714
   25        1.327   2.386   0.000   3.713
   26        1.330   2.379   0.000   3.709
   27        1.327   2.380   0.000   3.707
   28        1.329   2.386   0.000   3.715
   29        1.328   2.385   0.000   3.712
   30        1.329   2.388   0.000   3.718
   31        1.360   2.294   0.000   3.654
   32        1.329   2.387   0.000   3.715
   33        1.327   2.386   0.000   3.713
   34        1.328   2.385   0.000   3.714
   35        1.328   2.385   0.000   3.712
   36        1.330   2.379   0.000   3.709
   37        1.360   2.294   0.000   3.654
   38        1.329   2.388   0.000   3.718
   39        1.327   2.380   0.000   3.707
   40        1.330   2.379   0.000   3.709
   41        1.327   2.386   0.000   3.713
   42        1.329   2.387   0.000   3.716
   43        1.360   2.294   0.000   3.654
   44        1.328   2.386   0.000   3.714
   45        1.327   2.380   0.000   3.707
   46        1.329   2.388   0.000   3.717
   47        1.328   2.385   0.000   3.713
   48        1.329   2.388   0.000   3.717
   49        1.329   2.387   0.000   3.715
   50        1.329   2.380   0.000   3.709
   51        1.328   2.386   0.000   3.714
   52        1.360   2.294   0.000   3.654
   53        1.327   2.380   0.000   3.707
   54        1.327   2.386   0.000   3.713
   55        1.328   2.385   0.000   3.712
--------------------------------------------------
tot         52.001 182.738 118.683 353.423
 


 magnetization (x)
 
# of ion       s       p       d       tot
------------------------------------------
    1        0.000  -0.000   0.000  -0.000
    2        0.000  -0.000   0.000   0.000
    3        0.000   0.000   0.000   0.000
    4       -0.000   0.000   0.000   0.000
    5       -0.000  -0.000   0.000  -0.000
    6        0.000   0.000   0.000   0.000
    7        0.000   0.000   0.000   0.000
    8        0.000   0.000  -0.000  -0.000
    9        0.000   0.000  -0.001  -0.001
   10       -0.000  -0.000   0.000   0.000
   11        0.000  -0.000  -0.001  -0.001
   12        0.000  -0.000  -0.002  -0.002
   13        0.000  -0.000  -0.002  -0.002
   14       -0.000   0.000   0.002   0.002
   15        0.000   0.000   0.000   0.000
   16       -0.000   0.000   0.001   0.001
   17       -0.000   0.000   0.002   0.002
   18       -0.000  -0.000   0.000   0.000
   19       -0.000  -0.000   0.000   0.000
   20        0.000  -0.000  -0.000  -0.000
   21        0.000  -0.000   0.000   0.000
   22        0.000   0.000  -0.001  -0.001
   23       -0.000   0.000   0.001   0.001
   24        0.000  -0.000   0.000   0.000
   25        0.000   0.000   0.000   0.000
   26        0.000   0.000   0.000   0.000
   27        0.000  -0.000   0.000  -0.000
   28        0.000  -0.000   0.000   0.000
   29        0.000  -0.000   0.000  -0.000
   30        0.000   0.000   0.000   0.000
   31        0.000  -0.000   0.000  -0.000
   32       -0.000  -0.000   0.000  -0.000
   33        0.000   0.000   0.000   0.000
   34       -0.000  -0.000   0.000  -0.000
   35       -0.000   0.000   0.000   0.000
   36        0.000   0.000   0.000   0.000
   37       -0.000   0.000   0.000  -0.000
   38        0.000   0.000   0.000   0.000
   39       -0.000  -0.000   0.000  -0.000
   40       -0.000  -0.000   0.000  -0.000
   41       -0.000   0.000   0.000   0.000
   42       -0.000  -0.000   0.000  -0.000
   43       -0.000   0.000   0.000   0.000
   44       -0.000   0.000   0.000  -0.000
   45        0.000  -0.000   0.000  -0.000
   46       -0.000   0.000   0.000  -0.000
   47       -0.000   0.000   0.000  -0.000
   48        0.000  -0.000   0.000   0.000
   49       -0.000   0.000   0.000   0.000
   50       -0.000   0.000   0.000  -0.000
   51       -0.000  -0.000   0.000  -0.000
   52        0.000  -0.000   0.000  -0.000
   53       -0.000  -0.000   0.000  -0.000
   54        0.000   0.000   0.000   0.000
   55       -0.000   0.000   0.000   0.000
--------------------------------------------------
tot          0.000  -0.000   0.000   0.000
 
 BZINTS: Fermi energy:  6.979259;453.000000 electrons
         Band energy:***********;  BLOECHL correction: -0.523372

 total amount of memory used by VASP MPI-rank0   114849. kBytes
=======================================================================

   base      :      30000. kBytes
   nonlr-proj:      21847. kBytes
   fftplans  :       3667. kBytes
   grid      :      35562. kBytes
   one-center:       1710. kBytes
   wavefun   :      22063. kBytes
 
  
  
 General timing and accounting informations for this job:
 ========================================================
  
                  Total CPU time used (sec):     1417.225
                            User time (sec):     1410.528
                          System time (sec):        6.697
                         Elapsed time (sec):     1427.724
  
                   Maximum memory used (kb):      321536.
                   Average memory used (kb):           0.
  
                          Minor page faults:      1351666
                          Major page faults:           84
                 Voluntary context switches:        17811
