       N       E                     dE             d eps       ncg     rms          rms(c)
DAV:   1     0.552729759743E+04    0.55273E+04   -0.21077E+05  5616   0.167E+03
DAV:   2     0.661866145072E+03   -0.48654E+04   -0.45217E+04  5168   0.437E+02
DAV:   3    -0.234755107972E+03   -0.89662E+03   -0.80345E+03  5696   0.192E+02
DAV:   4    -0.315909897723E+03   -0.81155E+02   -0.79283E+02  6112   0.537E+01
DAV:   5    -0.317841929811E+03   -0.19320E+01   -0.19176E+01  6264   0.918E+00    0.102E+02
DAV:   6    -0.455146451894E+03   -0.13730E+03   -0.56312E+02  5864   0.117E+02    0.160E+02
DAV:   7    -0.286584476994E+03    0.16856E+03   -0.26609E+02  6080   0.792E+01    0.590E+01
DAV:   8    -0.289491189881E+03   -0.29067E+01   -0.83963E+01  6516   0.316E+01    0.306E+01
DAV:   9    -0.319267947196E+03   -0.29777E+02   -0.79227E+01  6376   0.383E+01    0.690E+01
DAV:  10    -0.299293860303E+03    0.19974E+02   -0.31858E+01  6040   0.372E+01    0.245E+01
DAV:  11    -0.300668166960E+03   -0.13743E+01   -0.18992E+01  6432   0.240E+01    0.241E+01
DAV:  12    -0.298910266201E+03    0.17579E+01   -0.79081E+00  5829   0.149E+01    0.922E+00
DAV:  13    -0.299312337250E+03   -0.40207E+00   -0.41367E+00  6128   0.903E+00    0.101E+01
DAV:  14    -0.299372220421E+03   -0.59883E-01   -0.25644E+00  5976   0.625E+00    0.584E+00
DAV:  15    -0.299421730800E+03   -0.49510E-01   -0.99869E-01  5904   0.545E+00    0.538E+00
DAV:  16    -0.299383068720E+03    0.38662E-01   -0.49638E-01  5848   0.345E+00    0.186E+00
DAV:  17    -0.299401577901E+03   -0.18509E-01   -0.85429E-02  5768   0.969E-01    0.105E+00
DAV:  18    -0.299410111968E+03   -0.85341E-02   -0.14774E-02  6072   0.451E-01    0.847E-01
DAV:  19    -0.299417145303E+03   -0.70333E-02   -0.40275E-03  6544   0.194E-01    0.669E-01
DAV:  20    -0.299422853290E+03   -0.57080E-02   -0.22608E-03  6544   0.196E-01    0.458E-01
DAV:  21    -0.299427551443E+03   -0.46982E-02   -0.29494E-03  6776   0.209E-01    0.266E-01
DAV:  22    -0.299430417290E+03   -0.28658E-02   -0.20642E-03  6928   0.157E-01    0.190E-01
DAV:  23    -0.299431869115E+03   -0.14518E-02   -0.88300E-04  6760   0.907E-02    0.148E-01
DAV:  24    -0.299433084208E+03   -0.12151E-02   -0.11490E-03  6184   0.141E-01    0.882E-02
DAV:  25    -0.299433622664E+03   -0.53846E-03   -0.80923E-04  6896   0.910E-02    0.579E-02
DAV:  26    -0.299433832053E+03   -0.20939E-03   -0.31748E-04  6496   0.592E-02    0.355E-02
DAV:  27    -0.299433948461E+03   -0.11641E-03   -0.11274E-04  5504   0.256E-02    0.237E-02
DAV:  28    -0.299433994601E+03   -0.46141E-04   -0.14828E-05  3848   0.114E-02    0.107E-02
DAV:  29    -0.299434007040E+03   -0.12439E-04   -0.48745E-06  2856   0.680E-03    0.715E-03
DAV:  30    -0.299434007961E+03   -0.92170E-06   -0.20127E-06  2824   0.372E-03
   1 F= -.29943401E+03 E0= -.29943401E+03  d E =-.299434E+03  mag=     0.0056
       N       E                     dE             d eps       ncg     rms          rms(c)
DAV:   1    -0.299200960977E+03    0.23305E+00   -0.10527E+01  7164   0.291E+01    0.202E+00
DAV:   2    -0.299543037641E+03   -0.34208E+00   -0.35028E+00  5552   0.343E+00    0.128E+00
DAV:   3    -0.299568926316E+03   -0.25889E-01   -0.31663E-01  6320   0.228E+00    0.281E+00
DAV:   4    -0.299545687897E+03    0.23238E-01   -0.18287E-01  5952   0.167E+00    0.895E-01
DAV:   5    -0.299540072091E+03    0.56158E-02   -0.27046E-02  6304   0.871E-01    0.871E-01
DAV:   6    -0.299539538355E+03    0.53374E-03   -0.11450E-02  6448   0.618E-01    0.457E-01
DAV:   7    -0.299540114775E+03   -0.57642E-03   -0.51171E-03  6256   0.395E-01    0.415E-01
DAV:   8    -0.299539370980E+03    0.74379E-03   -0.62132E-03  6112   0.466E-01    0.385E-01
DAV:   9    -0.299538736932E+03    0.63405E-03   -0.22553E-03  6536   0.256E-01    0.750E-02
DAV:  10    -0.299538971968E+03   -0.23504E-03   -0.48404E-04  6672   0.101E-01    0.123E-01
DAV:  11    -0.299538923397E+03    0.48571E-04   -0.25599E-04  5952   0.881E-02    0.526E-02
DAV:  12    -0.299538905149E+03    0.18248E-04   -0.22736E-05  3664   0.198E-02    0.301E-02
DAV:  13    -0.299538855910E+03    0.49239E-04   -0.23818E-05  3856   0.129E-02    0.101E-02
DAV:  14    -0.299538847138E+03    0.87719E-05   -0.41262E-06  2800   0.413E-03
   2 F= -.29953885E+03 E0= -.29953885E+03  d E =-.104839E+00  mag=     0.0008
       N       E                     dE             d eps       ncg     rms          rms(c)
DAV:   1    -0.299439261661E+03    0.99594E-01   -0.34001E+00  7685   0.189E+01    0.104E+00
DAV:   2    -0.299567214619E+03   -0.12795E+00   -0.13152E+00  5632   0.212E+00    0.724E-01
DAV:   3    -0.299578343037E+03   -0.11128E-01   -0.83694E-02  6352   0.135E+00    0.150E+00
DAV:   4    -0.299565813887E+03    0.12529E-01   -0.59666E-02  6048   0.867E-01    0.527E-01
DAV:   5    -0.299569708404E+03   -0.38945E-02   -0.80575E-03  6208   0.430E-01    0.458E-01
DAV:   6    -0.299566989638E+03    0.27188E-02   -0.25704E-03  6240   0.246E-01    0.251E-01
DAV:   7    -0.299567598556E+03   -0.60892E-03   -0.14904E-03  6304   0.230E-01    0.214E-01
DAV:   8    -0.299567170182E+03    0.42837E-03   -0.16447E-03  6240   0.263E-01    0.188E-01
DAV:   9    -0.299567070515E+03    0.99668E-04   -0.57925E-04  6288   0.140E-01    0.493E-02
DAV:  10    -0.299567189187E+03   -0.11867E-03   -0.11659E-04  6232   0.574E-02    0.616E-02
DAV:  11    -0.299567096317E+03    0.92870E-04   -0.48371E-05  4432   0.431E-02    0.276E-02
DAV:  12    -0.299567075047E+03    0.21270E-04   -0.12390E-05  2976   0.105E-02    0.122E-02
DAV:  13    -0.299567061607E+03    0.13440E-04   -0.61822E-06  2800   0.754E-03    0.364E-03
DAV:  14    -0.299567059478E+03    0.21284E-05   -0.17623E-06  2752   0.358E-03
   3 F= -.29956706E+03 E0= -.29956706E+03  d E =-.282123E-01  mag=     0.0001
       N       E                     dE             d eps       ncg     rms          rms(c)
DAV:   1    -0.299457633620E+03    0.10943E+00   -0.32284E+00  7778   0.190E+01    0.997E-01
DAV:   2    -0.299582927873E+03   -0.12529E+00   -0.12839E+00  5616   0.213E+00    0.735E-01
DAV:   3    -0.299594962743E+03   -0.12035E-01   -0.90753E-02  6320   0.139E+00    0.162E+00
DAV:   4    -0.299581322555E+03    0.13640E-01   -0.71150E-02  6096   0.875E-01    0.494E-01
DAV:   5    -0.299584423386E+03   -0.31008E-02   -0.60433E-03  6256   0.384E-01    0.393E-01
DAV:   6    -0.299582485538E+03    0.19378E-02   -0.18191E-03  6320   0.222E-01    0.250E-01
DAV:   7    -0.299583184763E+03   -0.69922E-03   -0.16391E-03  6144   0.243E-01    0.204E-01
DAV:   8    -0.299582630281E+03    0.55448E-03   -0.12450E-03  6336   0.229E-01    0.149E-01
DAV:   9    -0.299582562182E+03    0.68099E-04   -0.39575E-04  6176   0.115E-01    0.403E-02
DAV:  10    -0.299582629314E+03   -0.67132E-04   -0.87223E-05  5792   0.506E-02    0.544E-02
DAV:  11    -0.299582580166E+03    0.49148E-04   -0.41554E-05  4128   0.402E-02    0.235E-02
DAV:  12    -0.299582558103E+03    0.22063E-04   -0.12779E-05  3008   0.106E-02    0.956E-03
DAV:  13    -0.299582549057E+03    0.90457E-05   -0.51532E-06  2832   0.670E-03
   4 F= -.29958255E+03 E0= -.29958255E+03  d E =-.154896E-01  mag=     0.0000
       N       E                     dE             d eps       ncg     rms          rms(c)
DAV:   1    -0.299557481234E+03    0.25077E-01   -0.74066E-01  7752   0.932E+00    0.466E-01
DAV:   2    -0.299586739193E+03   -0.29258E-01   -0.30022E-01  5552   0.997E-01    0.303E-01
DAV:   3    -0.299589116038E+03   -0.23768E-02   -0.15012E-02  6464   0.538E-01    0.611E-01
DAV:   4    -0.299586318174E+03    0.27979E-02   -0.74156E-03  6256   0.370E-01    0.189E-01
DAV:   5    -0.299587971433E+03   -0.16533E-02   -0.12867E-03  6304   0.163E-01    0.221E-01
DAV:   6    -0.299586714615E+03    0.12568E-02   -0.59014E-04  6112   0.125E-01    0.950E-02
DAV:   7    -0.299587093630E+03   -0.37901E-03   -0.36652E-04  6224   0.115E-01    0.113E-01
DAV:   8    -0.299586793139E+03    0.30049E-03   -0.25010E-04  6336   0.103E-01    0.461E-02
DAV:   9    -0.299586802804E+03   -0.96657E-05   -0.51837E-05  5088   0.400E-02
   5 F= -.29958680E+03 E0= -.29958680E+03  d E =-.425375E-02  mag=     0.0000
       N       E                     dE             d eps       ncg     rms          rms(c)
DAV:   1    -0.299572655034E+03    0.14138E-01   -0.40348E-01  7752   0.705E+00    0.353E-01
DAV:   2    -0.299588910303E+03   -0.16255E-01   -0.16813E-01  5450   0.743E-01    0.234E-01
DAV:   3    -0.299590839518E+03   -0.19292E-02   -0.88302E-03  6288   0.431E-01    0.442E-01
DAV:   4    -0.299588883567E+03    0.19560E-02   -0.34672E-03  6240   0.309E-01    0.146E-01
DAV:   5    -0.299589872509E+03   -0.98894E-03   -0.88986E-04  6240   0.138E-01    0.169E-01
DAV:   6    -0.299588967091E+03    0.90542E-03   -0.42664E-04  6096   0.103E-01    0.825E-02
DAV:   7    -0.299589447591E+03   -0.48050E-03   -0.20210E-04  5936   0.844E-02    0.774E-02
DAV:   8    -0.299589190075E+03    0.25752E-03   -0.77545E-05  5552   0.550E-02    0.135E-02
DAV:   9    -0.299589217628E+03   -0.27553E-04   -0.15172E-05  2928   0.198E-02    0.187E-02
DAV:  10    -0.299589177980E+03    0.39648E-04   -0.10516E-05  2832   0.194E-02    0.120E-02
DAV:  11    -0.299589191777E+03   -0.13797E-04   -0.24726E-06  2800   0.859E-03    0.713E-03
DAV:  12    -0.299589192664E+03   -0.88714E-06   -0.10907E-06  2752   0.341E-03
   6 F= -.29958919E+03 E0= -.29958919E+03  d E =-.238986E-02  mag=     0.0000
       N       E                     dE             d eps       ncg     rms          rms(c)
DAV:   1    -0.299588027845E+03    0.11639E-02   -0.69903E-02  7624   0.292E+00    0.146E-01
DAV:   2    -0.299590699428E+03   -0.26716E-02   -0.28492E-02  5482   0.318E-01    0.840E-02
DAV:   3    -0.299591320412E+03   -0.62098E-03   -0.12953E-03  6528   0.155E-01    0.162E-01
DAV:   4    -0.299590678863E+03    0.64155E-03   -0.58238E-04  6112   0.107E-01    0.564E-02
DAV:   5    -0.299591052017E+03   -0.37315E-03   -0.11985E-04  5328   0.554E-02    0.711E-02
DAV:   6    -0.299590740165E+03    0.31185E-03   -0.67430E-05  4720   0.491E-02    0.274E-02
DAV:   7    -0.299590947162E+03   -0.20700E-03   -0.40212E-05  3968   0.374E-02    0.438E-02
DAV:   8    -0.299590800956E+03    0.14621E-03   -0.25849E-05  3680   0.323E-02    0.491E-03
DAV:   9    -0.299590794683E+03    0.62724E-05   -0.48900E-06  2800   0.729E-03
   7 F= -.29959079E+03 E0= -.29959079E+03  d E =-.160202E-02  mag=     0.0000
