 vasp.5.4.4.2.16052018-CX13-ORIG (build Jul 06 2020 08:41:35) complex           
  
 executed on   Pi1911m201i197avx2 date 2024.01.01  08:30:20
 running on   48 total cores
 each image running on   12 cores
 distrk:  each k-point on   12 cores,    1 groups
 distr:  one band on NCORES_PER_BAND=  12 cores,    1 groups


--------------------------------------------------------------------------------------------------------


 INCAR:
 POTCAR:    PAW_PBE Al 04Jan2001                  
 POTCAR:    PAW_PBE Co_pv 23Apr2009               
 POTCAR:    PAW_PBE S 06Sep2000                   

 ----------------------------------------------------------------------------- 
|                                                                             |
|           W    W    AA    RRRRR   N    N  II  N    N   GGGG   !!!           |
|           W    W   A  A   R    R  NN   N  II  NN   N  G    G  !!!           |
|           W    W  A    A  R    R  N N  N  II  N N  N  G       !!!           |
|           W WW W  AAAAAA  RRRRR   N  N N  II  N  N N  G  GGG   !            |
|           WW  WW  A    A  R   R   N   NN  II  N   NN  G    G                |
|           W    W  A    A  R    R  N    N  II  N    N   GGGG   !!!           |
|                                                                             |
|      For optimal performance we recommend to set                            |
|        NCORE= 4 - approx SQRT( number of cores)                             |
|      NCORE specifies how many cores store one orbital (NPAR=cpu/NCORE).     |
|      This setting can  greatly improve the performance of VASP for DFT.     |
|      The default,   NCORE=1            might be grossly inefficient         |
|      on modern multi-core architectures or massively parallel machines.     |
|      Do your own testing !!!!                                               |
|      Unfortunately you need to use the default for GW and RPA calculations. |
|      (for HF NCORE is supported but not extensively tested yet)             |
|                                                                             |
 ----------------------------------------------------------------------------- 

 POTCAR:    PAW_PBE Al 04Jan2001                  
   VRHFIN =Al: s2p1                                                             
   LEXCH  = PE                                                                  
   EATOM  =    53.5387 eV,    3.9350 Ry                                         
                                                                                
   TITEL  = PAW_PBE Al 04Jan2001                                                
   LULTRA =        F    use ultrasoft PP ?                                      
   IUNSCR =        1    unscreen: 0-lin 1-nonlin 2-no                           
   RPACOR =    1.500    partial core radius                                     
   POMASS =   26.981; ZVAL   =    3.000    mass and valenz                      
   RCORE  =    1.900    outmost cutoff radius                                   
   RWIGS  =    2.650; RWIGS  =    1.402    wigner-seitz radius (au A)           
   ENMAX  =  240.300; ENMIN  =  180.225 eV                                      
   ICORE  =        2    local potential                                         
   LCOR   =        T    correct aug charges                                     
   LPAW   =        T    paw PP                                                  
   EAUG   =  291.052                                                            
   DEXC   =    0.000                                                            
   RMAX   =    1.939    core radius for proj-oper                               
   RAUG   =    1.300    factor for augmentation sphere                          
   RDEP   =    1.966    radius for radial grids                                 
   RDEPT  =    1.856    core radius for aug-charge                              
                                                                                
   Atomic configuration                                                         
    6 entries                                                                   
     n  l   j            E        occ.                                          
     1  0  0.50     -1511.1048   2.0000                                         
     2  0  0.50      -108.1629   2.0000                                         
     2  1  1.50       -69.6402   6.0000                                         
     3  0  0.50        -7.7528   2.0000                                         
     3  1  1.50        -2.7121   1.0000                                         
     3  2  2.50        -2.7212   0.0000                                         
   Description                                                                  
     l       E           TYP  RCUT    TYP  RCUT                                 
     0     -7.7528455     23  1.900                                             
     0     -3.3096929     23  1.900                                             
     1     -2.7120682     23  1.900                                             
     1     13.6058260     23  1.900                                             
     2     -2.7211652      7  1.900                                             
  local pseudopotential read in
  partial core-charges read in
  partial kinetic energy density read in
  atomic valenz-charges read in
  non local Contribution for L=           0  read in
    real space projection operators read in
  non local Contribution for L=           0  read in
    real space projection operators read in
  non local Contribution for L=           1  read in
    real space projection operators read in
  non local Contribution for L=           1  read in
    real space projection operators read in
    PAW grid and wavefunctions read in
 
   number of l-projection  operators is LMAX  =           4
   number of lm-projection operators is LMMAX =           8
 
 POTCAR:    PAW_PBE Co_pv 23Apr2009               
   VRHFIN =Co: 3pd7s1                                                           
   LEXCH  = PE                                                                  
   EATOM  =  2948.1334 eV,  216.6817 Ry                                         
                                                                                
   TITEL  = PAW_PBE Co_pv 23Apr2009                                             
   LULTRA =        F    use ultrasoft PP ?                                      
   IUNSCR =        1    unscreen: 0-lin 1-nonlin 2-no                           
   RPACOR =    2.000    partial core radius                                     
   POMASS =   58.933; ZVAL   =   15.000    mass and valenz                      
   RCORE  =    2.300    outmost cutoff radius                                   
   RWIGS  =    2.460; RWIGS  =    1.302    wigner-seitz radius (au A)           
   ENMAX  =  271.042; ENMIN  =  203.281 eV                                      
   ICORE  =        3    local potential                                         
   LCOR   =        T    correct aug charges                                     
   LPAW   =        T    paw PP                                                  
   EAUG   =  543.066                                                            
   DEXC   =    0.000                                                            
   RMAX   =    2.360    core radius for proj-oper                               
   RAUG   =    1.300    factor for augmentation sphere                          
   RDEP   =    2.393    radius for radial grids                                 
   RDEPT  =    1.841    core radius for aug-charge                              
                                                                                
   Atomic configuration                                                         
    8 entries                                                                   
     n  l   j            E        occ.                                          
     1  0  0.50     -7587.6674   2.0000                                         
     2  0  0.50      -893.6084   2.0000                                         
     2  1  1.50      -764.5805   6.0000                                         
     3  0  0.50       -97.5973   2.0000                                         
     3  1  1.50       -60.9648   6.0000                                         
     3  2  2.50        -4.2382   8.0000                                         
     4  0  0.50        -4.3746   1.0000                                         
     4  3  2.50        -1.3606   0.0000                                         
   Description                                                                  
     l       E           TYP  RCUT    TYP  RCUT                                 
     1    -60.9647990     23  2.000                                             
     1     -5.4423304     23  2.000                                             
     2     -4.2382362     23  2.300                                             
     2     -5.5988188     23  2.300                                             
     0     -4.3745797     23  2.300                                             
     0      5.7660125     23  2.300                                             
     3     -1.3605826     23  2.300                                             
  local pseudopotential read in
  partial core-charges read in
  partial kinetic energy density read in
  atomic valenz-charges read in
  non local Contribution for L=           1  read in
    real space projection operators read in
  non local Contribution for L=           1  read in
    real space projection operators read in
  non local Contribution for L=           2  read in
    real space projection operators read in
  non local Contribution for L=           2  read in
    real space projection operators read in
  non local Contribution for L=           0  read in
    real space projection operators read in
  non local Contribution for L=           0  read in
    real space projection operators read in
    PAW grid and wavefunctions read in
 
   number of l-projection  operators is LMAX  =           6
   number of lm-projection operators is LMMAX =          18
 
 POTCAR:    PAW_PBE S 06Sep2000                   
   VRHFIN =S : s2p4                                                             
   LEXCH  = PE                                                                  
   EATOM  =   276.8230 eV,   20.3459 Ry                                         
                                                                                
   TITEL  = PAW_PBE S 06Sep2000                                                 
   LULTRA =        F    use ultrasoft PP ?                                      
   IUNSCR =        1    unscreen: 0-lin 1-nonlin 2-no                           
   RPACOR =    1.500    partial core radius                                     
   POMASS =   32.066; ZVAL   =    6.000    mass and valenz                      
   RCORE  =    1.900    outmost cutoff radius                                   
   RWIGS  =    2.200; RWIGS  =    1.164    wigner-seitz radius (au A)           
   ENMAX  =  258.689; ENMIN  =  194.016 eV                                      
   ICORE  =        2    local potential                                         
   LCOR   =        T    correct aug charges                                     
   LPAW   =        T    paw PP                                                  
   EAUG   =  335.092                                                            
   DEXC   =    0.000                                                            
   RMAX   =    1.942    core radius for proj-oper                               
   RAUG   =    1.300    factor for augmentation sphere                          
   RDEP   =    1.954    radius for radial grids                                 
   RDEPT  =    1.744    core radius for aug-charge                              
                                                                                
   Atomic configuration                                                         
    6 entries                                                                   
     n  l   j            E        occ.                                          
     1  0  0.50     -2405.8406   2.0000                                         
     2  0  0.50      -211.7007   2.0000                                         
     2  1  1.50      -156.4958   6.0000                                         
     3  0  0.50       -17.2562   2.0000                                         
     3  1  0.50        -7.0085   4.0000                                         
     3  2  1.50        -6.8029   0.0000                                         
   Description                                                                  
     l       E           TYP  RCUT    TYP  RCUT                                 
     0    -17.2561641     23  1.900                                             
     0    -15.8743224     23  1.900                                             
     1     -7.0085400     23  1.900                                             
     1     -2.7779785     23  1.900                                             
     2     -6.8029130     23  1.900                                             
  local pseudopotential read in
  partial core-charges read in
  partial kinetic energy density read in
  atomic valenz-charges read in
  non local Contribution for L=           0  read in
    real space projection operators read in
  non local Contribution for L=           0  read in
    real space projection operators read in
  non local Contribution for L=           1  read in
    real space projection operators read in
  non local Contribution for L=           1  read in
    real space projection operators read in
    PAW grid and wavefunctions read in
 
   number of l-projection  operators is LMAX  =           4
   number of lm-projection operators is LMMAX =           8
 
 Optimization of the real space projectors (new method)

 maximal supplied QI-value         = 19.84
 optimisation between [QCUT,QGAM] = [ 11.51, 23.22] = [ 37.09,150.92] Ry 
 Optimized for a Real-space Cutoff    1.18 Angstroem

   l    n(q)    QCUT    max X(q) W(low)/X(q) W(high)/X(q)  e(spline) 
   0      8    11.508   176.870    0.11E-03    0.16E-03    0.40E-07
   0      8    11.508   105.762    0.11E-03    0.16E-03    0.39E-07
   1      8    11.508    55.370    0.23E-03    0.10E-03    0.75E-07
   1      8    11.508    20.208    0.21E-03    0.91E-04    0.68E-07
 Optimization of the real space projectors (new method)

 maximal supplied QI-value         = 16.25
 optimisation between [QCUT,QGAM] = [ 11.54, 23.24] = [ 37.28,151.24] Ry 
 Optimized for a Real-space Cutoff    1.32 Angstroem

   l    n(q)    QCUT    max X(q) W(low)/X(q) W(high)/X(q)  e(spline) 
   1      9    11.539     4.946    0.12E-03    0.47E-03    0.20E-06
   1      9    11.539     5.991    0.19E-03    0.70E-03    0.29E-06
   2      8    11.539    46.947    0.22E-03    0.40E-03    0.23E-06
   2      8    11.539    42.928    0.24E-03    0.42E-03    0.23E-06
   0      9    11.539    68.324    0.11E-03    0.13E-03    0.74E-07
   0      9    11.539    36.926    0.10E-03    0.12E-03    0.70E-07
 Optimization of the real space projectors (new method)

 maximal supplied QI-value         = 19.84
 optimisation between [QCUT,QGAM] = [ 11.51, 23.22] = [ 37.09,150.92] Ry 
 Optimized for a Real-space Cutoff    1.21 Angstroem

   l    n(q)    QCUT    max X(q) W(low)/X(q) W(high)/X(q)  e(spline) 
   0      8    11.508   187.594    0.96E-04    0.18E-03    0.54E-07
   0      8    11.508   164.243    0.96E-04    0.18E-03    0.54E-07
   1      8    11.508    67.533    0.18E-03    0.65E-04    0.94E-07
   1      8    11.508    50.729    0.18E-03    0.63E-04    0.92E-07
  PAW_PBE Al 04Jan2001                  :
 energy of atom  1       EATOM=  -53.5387
 kinetic energy error for atom=    0.0002 (will be added to EATOM!!)
  PAW_PBE Co_pv 23Apr2009               :
 energy of atom  2       EATOM=-2948.1334
 kinetic energy error for atom=    0.0056 (will be added to EATOM!!)
  PAW_PBE S 06Sep2000                   :
 energy of atom  3       EATOM= -276.8230
 kinetic energy error for atom=    0.0016 (will be added to EATOM!!)
 
 
 POSCAR: Al Co  S                                
  positions in direct lattice
  velocities in cartesian coordinates
 exchange correlation table for  LEXCH =        8
   RHO(1)=    0.500       N(1)  =     2000
   RHO(2)=  100.500       N(2)  =     4000
 
 POSCAR: Al Co  S                                
  positions in direct lattice
  velocities in cartesian coordinates
 
 POSCAR: Al Co  S                                
  positions in direct lattice
  velocities in cartesian coordinates
 


--------------------------------------------------------------------------------------------------------


 ion  position               nearest neighbor table
   1  0.000  0.000  0.000-  27 2.31  39 2.31  45 2.31  53 2.31
   2  0.248  0.748  0.748-  32 2.29  34 2.29  38 2.29  36 2.32
   3  0.500  0.000  0.500-  25 2.31  33 2.31  41 2.31  54 2.31
   4  0.500  0.500  0.000-  29 2.31  35 2.31  47 2.31  55 2.31
   5  0.752  0.252  0.748-  42 2.29  44 2.29  46 2.29  40 2.32
   6  0.752  0.748  0.252-  48 2.29  49 2.29  51 2.29  50 2.32
   7  0.198  0.302  0.302-  24 2.16  28 2.16  30 2.16
   8  0.127  0.126  0.627-  43 2.24  41 2.26  45 2.26  44 2.29  24 2.29  34 2.31
   9  0.873  0.874  0.627-  31 2.24  27 2.26  25 2.26  34 2.29  51 2.29  44 2.31
  10  0.375  0.125  0.875-  41 2.27  45 2.27  47 2.27  26 2.28  36 2.28  40 2.28
  11  0.625  0.875  0.875-  25 2.27  27 2.27  29 2.27  36 2.28  40 2.28  50 2.28
  12  0.127  0.373  0.874-  43 2.24  45 2.26  47 2.26  32 2.29  42 2.29  28 2.31
  13  0.873  0.627  0.874-  31 2.24  29 2.26  27 2.26  42 2.29  32 2.29  49 2.31
  14  0.374  0.373  0.627-  43 2.24  41 2.26  47 2.26  38 2.29  30 2.29  46 2.31
  15  0.626  0.627  0.627-  31 2.24  29 2.26  25 2.26  46 2.29  48 2.29  38 2.31
  16  0.375  0.875  0.125-  33 2.27  35 2.27  39 2.27  36 2.28  26 2.28  50 2.28
  17  0.374  0.627  0.373-  37 2.24  35 2.26  33 2.26  30 2.29  38 2.29  48 2.31
  18  0.127  0.627  0.126-  37 2.24  35 2.26  39 2.26  28 2.29  49 2.29  32 2.31
  19  0.127  0.874  0.373-  37 2.24  33 2.26  39 2.26  34 2.29  51 2.29  24 2.31
  20  0.873  0.373  0.126-  52 2.24  53 2.26  55 2.26  49 2.29  28 2.29  42 2.31
  21  0.873  0.126  0.373-  52 2.24  53 2.26  54 2.26  44 2.29  24 2.29  51 2.31
  22  0.625  0.125  0.125-  53 2.27  54 2.27  55 2.27  26 2.28  40 2.28  50 2.28
  23  0.626  0.373  0.373-  52 2.24  54 2.26  55 2.26  48 2.29  46 2.29  30 2.31
  24  0.110  0.114  0.390-   7 2.16   8 2.29  21 2.29  19 2.31
  25  0.638  0.862  0.640-   9 2.26  15 2.26  11 2.27   3 2.31
  26  0.388  0.112  0.112-  10 2.28  16 2.28  22 2.28
  27  0.860  0.862  0.862-   9 2.26  13 2.26  11 2.27   1 2.31
  28  0.110  0.390  0.114-   7 2.16  18 2.29  20 2.29  12 2.31
  29  0.638  0.640  0.862-  13 2.26  15 2.26  11 2.27   4 2.31
  30  0.386  0.390  0.390-   7 2.16  14 2.29  17 2.29  23 2.31
  31  0.858  0.642  0.642-   9 2.24  13 2.24  15 2.24
  32  0.110  0.610  0.886-  12 2.29  13 2.29   2 2.29  18 2.31
  33  0.362  0.862  0.360-  19 2.26  17 2.26  16 2.27   3 2.31
  34  0.110  0.886  0.610-   9 2.29  19 2.29   2 2.29   8 2.31
  35  0.362  0.640  0.138-  17 2.26  18 2.26  16 2.27   4 2.31
  36  0.388  0.888  0.888-  10 2.28  11 2.28  16 2.28   2 2.32
  37  0.142  0.642  0.358-  19 2.24  18 2.24  17 2.24
  38  0.386  0.610  0.610-  14 2.29  17 2.29   2 2.29  15 2.31
  39  0.140  0.862  0.138-  19 2.26  18 2.26  16 2.27   1 2.31
  40  0.612  0.112  0.888-  10 2.28  11 2.28  22 2.28   5 2.32
  41  0.362  0.138  0.640-   8 2.26  14 2.26  10 2.27   3 2.31
  42  0.890  0.390  0.886-  13 2.29  12 2.29   5 2.29  20 2.31
  43  0.142  0.358  0.642-  12 2.24   8 2.24  14 2.24
  44  0.890  0.114  0.610-   8 2.29  21 2.29   5 2.29   9 2.31
  45  0.140  0.138  0.862-  12 2.26   8 2.26  10 2.27   1 2.31
  46  0.614  0.390  0.610-  15 2.29  23 2.29   5 2.29  14 2.31
  47  0.362  0.360  0.862-  12 2.26  14 2.26  10 2.27   4 2.31
  48  0.614  0.610  0.390-  23 2.29  15 2.29   6 2.29  17 2.31
  49  0.890  0.610  0.114-  18 2.29  20 2.29   6 2.29  13 2.31
  50  0.612  0.888  0.112-  11 2.28  16 2.28  22 2.28   6 2.32
  51  0.890  0.886  0.390-   9 2.29  19 2.29   6 2.29  21 2.31
  52  0.858  0.358  0.358-  23 2.24  21 2.24  20 2.24
  53  0.860  0.138  0.138-  20 2.26  21 2.26  22 2.27   1 2.31
  54  0.638  0.138  0.360-  23 2.26  21 2.26  22 2.27   3 2.31
  55  0.638  0.360  0.138-  23 2.26  20 2.26  22 2.27   4 2.31
 
  LATTYP: Found a simple cubic cell.
 ALAT       =     9.6027250954
  
  Lattice vectors:
  
 A1 = (   9.6027250954,   0.0000000000,   0.0000000000)
 A2 = (   0.0000000000,   9.6027250954,   0.0000000000)
 A3 = (   0.0000000000,   0.0000000000,   9.6027250954)


Analysis of symmetry for initial positions (statically):
=====================================================================
 Subroutine PRICEL returns:
 Original cell was already a primitive cell.
 

 Routine SETGRP: Setting up the symmetry group for a 
 simple cubic supercell.


 Subroutine GETGRP returns: Found  6 space group operations
 (whereof  2 operations were pure point group operations)
 out of a pool of 48 trial point group operations.


The static configuration has the point symmetry C_1h.
 The point group associated with its full space group is C_3v.


Analysis of symmetry for dynamics (positions and initial velocities):
=====================================================================
 Subroutine PRICEL returns:
 Original cell was already a primitive cell.
 

 Routine SETGRP: Setting up the symmetry group for a 
 simple cubic supercell.


 Subroutine GETGRP returns: Found  6 space group operations
 (whereof  2 operations were pure point group operations)
 out of a pool of 48 trial point group operations.


The dynamic configuration has the point symmetry C_1h.
 The point group associated with its full space group is C_3v.


Analysis of structural, dynamic, and magnetic symmetry:
=====================================================================
 Subroutine PRICEL returns:
 Original cell was already a primitive cell.
 

 Routine SETGRP: Setting up the symmetry group for a 
 simple cubic supercell.


 Subroutine GETGRP returns: Found  6 space group operations
 (whereof  2 operations were pure point group operations)
 out of a pool of 48 trial point group operations.


The magnetic configuration has the point symmetry C_1h.
 The point group associated with its full space group is C_3v.


 Subroutine INISYM returns: Found  6 space group operations
 (whereof  2 operations are pure point group operations),
 and found     1 'primitive' translations

 
 
 KPOINTS: Monkhorst Pack                          

Automatic generation of k-mesh.
Space group operators:
 irot       det(A)        alpha          n_x          n_y          n_z        tau_x        tau_y        tau_z
    1     1.000000     0.000000     1.000000     0.000000     0.000000     0.000000     0.000000     0.000000
    2    -1.000000   180.000000     0.000000    -0.707107     0.707107     0.000000     0.000000     0.000000
    3     1.000000   120.000000    -0.577350     0.577350     0.577350     0.500000     0.500000     0.000000
    4    -1.000000   180.000000     0.707107     0.000000     0.707107     0.500000     0.000000     0.500000
    5    -1.000000   180.000000     0.707107     0.707107     0.000000     0.500000     0.500000     0.000000
    6     1.000000   120.000000     0.577350    -0.577350    -0.577350     0.500000     0.000000     0.500000
 
 Subroutine IBZKPT returns following result:
 ===========================================
 
 Found      4 irreducible k-points:
 
 Following reciprocal coordinates:
            Coordinates               Weight
  0.000000  0.000000  0.000000      1.000000
  0.500000  0.000000  0.000000      3.000000
  0.500000  0.500000  0.000000      3.000000
  0.500000  0.500000  0.500000      1.000000
 
 Following cartesian coordinates:
            Coordinates               Weight
  0.000000  0.000000  0.000000      1.000000
  0.052069  0.000000  0.000000      3.000000
  0.052069  0.052069  0.000000      3.000000
  0.052069  0.052069  0.052069      1.000000
 
 TETIRR: Found      4 inequivalent tetrahedra from       48


--------------------------------------------------------------------------------------------------------




 Dimension of arrays:
   k-points           NKPTS =      4   k-points in BZ     NKDIM =      4   number of bands    NBANDS=    323
   number of dos      NEDOS =    301   number of ions     NIONS =     55
   non local maximal  LDIM  =      6   non local SUM 2l+1 LMDIM =     18
   total plane-waves  NPLWV = 373248
   max r-space proj   IRMAX =   4139   max aug-charges    IRDMAX=  16603
   dimension x,y,z NGX =    72 NGY =   72 NGZ =   72
   dimension x,y,z NGXF=   144 NGYF=  144 NGZF=  144
   support grid    NGXF=   144 NGYF=  144 NGZF=  144
   ions per type =               7  16  32
   NGX,Y,Z   is equivalent  to a cutoff of  12.46, 12.46, 12.46 a.u.
   NGXF,Y,Z  is equivalent  to a cutoff of  24.93, 24.93, 24.93 a.u.

 SYSTEM =  AlCo2S4                                 
 POSCAR =  Al Co  S                                

 Startparameter for this run:
   NWRITE =      2    write-flag & timer
   PREC   = accura    normal or accurate (medium, high low for compatibility)
   ISTART =      0    job   : 0-new  1-cont  2-samecut
   ICHARG =      1    charge: 1-file 2-atom 10-const
   ISPIN  =      2    spin polarized calculation?
   LNONCOLLINEAR =      F non collinear calculations
   LSORBIT =      F    spin-orbit coupling
   INIWAV =      1    electr: 0-lowe 1-rand  2-diag
   LASPH  =      F    aspherical Exc in radial PAW
   METAGGA=      F    non-selfconsistent MetaGGA calc.

 Electronic Relaxation 1
   ENCUT  =  520.0 eV  38.22 Ry    6.18 a.u.  17.85 17.85 17.85*2*pi/ulx,y,z
   ENINI  =  520.0     initial cutoff
   ENAUG  =  543.1 eV  augmentation charge cutoff
   NELM   =    100;   NELMIN=  2; NELMDL= -5     # of ELM steps 
   EDIFF  = 0.1E-04   stopping-criterion for ELM
   LREAL  =      T    real-space projection
   NLSPLINE    = F    spline interpolate recip. space projectors
   LCOMPAT=      F    compatible to vasp.4.4
   GGA_COMPAT  = T    GGA compatible to vasp.4.4-vasp.4.6
   LMAXPAW     = -100 max onsite density
   LMAXMIX     =    4 max onsite mixed and CHGCAR
   VOSKOWN=      0    Vosko Wilk Nusair interpolation
   ROPT   =   -0.00025  -0.00025  -0.00025
 Ionic relaxation
   EDIFFG = -.5E-01   stopping-criterion for IOM
   NSW    =    199    number of steps for IOM
   NBLOCK =      1;   KBLOCK =    199    inner block; outer block 
   IBRION =      1    ionic relax: 0-MD 1-quasi-New 2-CG
   NFREE  =      0    steps in history (QN), initial steepest desc. (CG)
   ISIF   =      2    stress and relaxation
   IWAVPR =     11    prediction:  0-non 1-charg 2-wave 3-comb
   ISYM   =      2    0-nonsym 1-usesym 2-fastsym
   LCORR  =      T    Harris-Foulkes like correction to forces

   POTIM  = 0.5000    time-step for ionic-motion
   TEIN   =    0.0    initial temperature
   TEBEG  =    0.0;   TEEND  =   0.0 temperature during run
   SMASS  =  -3.00    Nose mass-parameter (am)
   estimated Nose-frequenzy (Omega)   =  0.10E-29 period in steps =****** mass=  -0.211E-26a.u.
   SCALEE = 1.0000    scale energy and forces
   NPACO  =    256;   APACO  = 16.0  distance and # of slots for P.C.
   PSTRESS=    0.0 pullay stress

  Mass of Ions in am
   POMASS =  26.98 58.93 32.07
  Ionic Valenz
   ZVAL   =   3.00 15.00  6.00
  Atomic Wigner-Seitz radii
   RWIGS  =  -1.00 -1.00 -1.00
  virtual crystal weights 
   VCA    =   1.00  1.00  1.00
   NELECT =     453.0000    total number of electrons
   NUPDOWN=      -1.0000    fix difference up-down

 DOS related values:
   EMIN   =  10.00;   EMAX   =-10.00  energy-range for DOS
   EFERMI =   0.00
   ISMEAR =    -5;   SIGMA  =   0.05  broadening in eV -4-tet -1-fermi 0-gaus

 Electronic relaxation 2 (details)
   IALGO  =     38    algorithm
   LDIAG  =      T    sub-space diagonalisation (order eigenvalues)
   LSUBROT=      F    optimize rotation matrix (better conditioning)
   TURBO    =      0    0=normal 1=particle mesh
   IRESTART =      0    0=no restart 2=restart with 2 vectors
   NREBOOT  =      0    no. of reboots
   NMIN     =      0    reboot dimension
   EREF     =   0.00    reference energy to select bands
   IMIX   =      4    mixing-type and parameters
     AMIX     =   0.40;   BMIX     =  1.00
     AMIX_MAG =   1.60;   BMIX_MAG =  1.00
     AMIN     =   0.10
     WC   =   100.;   INIMIX=   1;  MIXPRE=   1;  MAXMIX= -45

 Intra band minimization:
   WEIMIN = 0.0010     energy-eigenvalue tresh-hold
   EBREAK =  0.77E-08  absolut break condition
   DEPER  =   0.30     relativ break condition  

   TIME   =   0.40     timestep for ELM

  volume/ion in A,a.u.               =      16.10       108.65
  Fermi-wavevector in a.u.,A,eV,Ry     =   1.309322  2.474259 23.324789  1.714324
  Thomas-Fermi vector in A             =   2.439928
 
 Write flags
   LWAVE        =      F    write WAVECAR
   LDOWNSAMPLE  =      F    k-point downsampling of WAVECAR
   LCHARG       =      F    write CHGCAR
   LVTOT        =      F    write LOCPOT, total local potential
   LVHAR        =      F    write LOCPOT, Hartree potential only
   LELF         =      F    write electronic localiz. function (ELF)
   LORBIT       =     11    0 simple, 1 ext, 2 COOP (PROOUT), +10 PAW based schemes


 Dipole corrections
   LMONO  =      F    monopole corrections only (constant potential shift)
   LDIPOL =      F    correct potential (dipole corrections)
   IDIPOL =      0    1-x, 2-y, 3-z, 4-all directions 
   EPSILON=  1.0000000 bulk dielectric constant

 Exchange correlation treatment:
   GGA     =    --    GGA type
   LEXCH   =     8    internal setting for exchange type
   VOSKOWN=      0    Vosko Wilk Nusair interpolation
   LHFCALC =     F    Hartree Fock is set to
   LHFONE  =     F    Hartree Fock one center treatment
   AEXX    =    0.0000 exact exchange contribution

 Linear response parameters
   LEPSILON=     F    determine dielectric tensor
   LRPA    =     F    only Hartree local field effects (RPA)
   LNABLA  =     F    use nabla operator in PAW spheres
   LVEL    =     F    velocity operator in full k-point grid
   LINTERFAST=   F  fast interpolation
   KINTER  =     0    interpolate to denser k-point grid
   CSHIFT  =0.1000    complex shift for real part using Kramers Kronig
   OMEGAMAX=  -1.0    maximum frequency
   DEG_THRESHOLD= 0.2000000E-02 threshold for treating states as degnerate
   RTIME   =   -0.100 relaxation time in fs
  (WPLASMAI=    0.000 imaginary part of plasma frequency in eV, 0.658/RTIME)
   DFIELD  = 0.0000000 0.0000000 0.0000000 field for delta impulse in time
 
 Orbital magnetization related:
   ORBITALMAG=     F  switch on orbital magnetization
   LCHIMAG   =     F  perturbation theory with respect to B field
   DQ        =  0.001000  dq finite difference perturbation B field
   LLRAUG    =     F  two centre corrections for induced B field



--------------------------------------------------------------------------------------------------------


 quasi-Newton-method for relaxation of ions
 charge density and potential will be updated during run
 spin polarized calculation
 Variant of blocked Davidson
 Davidson routine will perform the subspace rotation
 perform sub-space diagonalisation
    after iterative eigenvector-optimisation
 modified Broyden-mixing scheme, WC =      100.0
 initial mixing is a Kerker type mixing with AMIX =  0.4000 and BMIX =      1.0000
 Hartree-type preconditioning will be used
 using additional bands           96
 real space projection scheme for non local part
 use partial core corrections
 calculate Harris-corrections to forces 
   (improved forces if not selfconsistent)
 use gradient corrections 
 use of overlap-Matrix (Vanderbilt PP)
 Fermi weights with tetrahedron method with Bloechl corrections


--------------------------------------------------------------------------------------------------------


  energy-cutoff  :      520.00
  volume of cell :      885.49
      direct lattice vectors                 reciprocal lattice vectors
     9.602725095  0.000000000  0.000000000     0.104137106  0.000000000  0.000000000
     0.000000000  9.602725095  0.000000000     0.000000000  0.104137106  0.000000000
     0.000000000  0.000000000  9.602725095     0.000000000  0.000000000  0.104137106

  length of vectors
     9.602725095  9.602725095  9.602725095     0.104137106  0.104137106  0.104137106


 
 k-points in units of 2pi/SCALE and weight: Monkhorst Pack                          
   0.00000000  0.00000000  0.00000000       0.125
   0.05206855  0.00000000  0.00000000       0.375
   0.05206855  0.05206855  0.00000000       0.375
   0.05206855  0.05206855  0.05206855       0.125
 
 k-points in reciprocal lattice and weights: Monkhorst Pack                          
   0.00000000  0.00000000  0.00000000       0.125
   0.50000000  0.00000000  0.00000000       0.375
   0.50000000  0.50000000  0.00000000       0.375
   0.50000000  0.50000000  0.50000000       0.125
 
 position of ions in fractional coordinates (direct lattice) 
   0.00000000  0.00000000  0.00000000
   0.24816687  0.74816687  0.74816687
   0.50000000  0.00000000  0.50000000
   0.50000000  0.50000000  0.00000000
   0.75183313  0.25183313  0.74816687
   0.75183313  0.74816687  0.25183313
   0.19816687  0.30183313  0.30183313
   0.12728522  0.12621581  0.62728522
   0.87271478  0.87378419  0.62728522
   0.37526679  0.12473321  0.87526679
   0.62473321  0.87526679  0.87526679
   0.12728522  0.37271478  0.87378419
   0.87271478  0.62728522  0.87378419
   0.37378419  0.37271478  0.62728522
   0.62621581  0.62728522  0.62728522
   0.37526679  0.87526679  0.12473321
   0.37378419  0.62728522  0.37271478
   0.12728522  0.62728522  0.12621581
   0.12728522  0.87378419  0.37271478
   0.87271478  0.37271478  0.12621581
   0.87271478  0.12621581  0.37271478
   0.62473321  0.12473321  0.12473321
   0.62621581  0.37271478  0.37271478
   0.11040639  0.11363286  0.38959361
   0.63809977  0.86190023  0.63971123
   0.38779841  0.11220159  0.11220159
   0.86028877  0.86190023  0.86190023
   0.11040639  0.38959361  0.11363286
   0.63809977  0.63971123  0.86190023
   0.38636714  0.38959361  0.38959361
   0.85812981  0.64187019  0.64187019
   0.11040639  0.61040639  0.88636714
   0.36190023  0.86190023  0.36028877
   0.11040639  0.88636714  0.61040639
   0.36190023  0.63971123  0.13809977
   0.38779841  0.88779841  0.88779841
   0.14187019  0.64187019  0.35812981
   0.38636714  0.61040639  0.61040639
   0.13971123  0.86190023  0.13809977
   0.61220159  0.11220159  0.88779841
   0.36190023  0.13809977  0.63971123
   0.88959361  0.38959361  0.88636714
   0.14187019  0.35812981  0.64187019
   0.88959361  0.11363286  0.61040639
   0.13971123  0.13809977  0.86190023
   0.61363286  0.38959361  0.61040639
   0.36190023  0.36028877  0.86190023
   0.61363286  0.61040639  0.38959361
   0.88959361  0.61040639  0.11363286
   0.61220159  0.88779841  0.11220159
   0.88959361  0.88636714  0.38959361
   0.85812981  0.35812981  0.35812981
   0.86028877  0.13809977  0.13809977
   0.63809977  0.13809977  0.36028877
   0.63809977  0.36028877  0.13809977
 
 position of ions in cartesian coordinates  (Angst):
   0.00000000  0.00000000  0.00000000
   2.38307820  7.18444075  7.18444075
   4.80136255  0.00000000  4.80136255
   4.80136255  4.80136255  0.00000000
   7.21964689  2.41828434  7.18444075
   7.21964689  7.18444075  2.41828434
   1.90294195  2.89842060  2.89842060
   1.22228500  1.21201577  6.02364755
   8.38044009  8.39070932  6.02364755
   3.60358382  1.19777872  8.40494637
   5.99914127  8.40494637  8.40494637
   1.22228500  3.57907754  8.39070932
   8.38044009  6.02364755  8.39070932
   3.58934678  3.57907754  6.02364755
   6.01337832  6.02364755  6.02364755
   3.60358382  8.40494637  1.19777872
   3.58934678  6.02364755  3.57907754
   1.22228500  6.02364755  1.21201577
   1.22228500  8.39070932  3.57907754
   8.38044009  3.57907754  1.21201577
   8.38044009  1.21201577  3.57907754
   5.99914127  1.19777872  1.19777872
   6.01337832  3.57907754  3.57907754
   1.06020222  1.09118511  3.74116032
   6.12749671  8.27659094  6.14297108
   3.72392154  1.07744101  1.07744101
   8.26111656  8.27659094  8.27659094
   1.06020222  3.74116032  1.09118511
   6.12749671  6.14297108  8.27659094
   3.71017744  3.74116032  3.74116032
   8.24038465  6.16370300  6.16370300
   1.06020222  5.86156477  8.51153998
   3.47522839  8.27659094  3.45975401
   1.06020222  8.51153998  5.86156477
   3.47522839  6.14297108  1.32613416
   3.72392154  8.52528409  8.52528409
   1.36234045  6.16370300  3.43902210
   3.71017744  5.86156477  5.86156477
   1.34160853  8.27659094  1.32613416
   5.87880356  1.07744101  8.52528409
   3.47522839  1.32613416  6.14297108
   8.54252287  3.74116032  8.51153998
   1.36234045  3.43902210  6.16370300
   8.54252287  1.09118511  5.86156477
   1.34160853  1.32613416  8.27659094
   5.89254766  3.74116032  5.86156477
   3.47522839  3.45975401  8.27659094
   5.89254766  5.86156477  3.74116032
   8.54252287  5.86156477  1.09118511
   5.87880356  8.52528409  1.07744101
   8.54252287  8.51153998  3.74116032
   8.24038465  3.43902210  3.43902210
   8.26111656  1.32613416  1.32613416
   6.12749671  1.32613416  3.45975401
   6.12749671  3.45975401  1.32613416
 


--------------------------------------------------------------------------------------------------------


 k-point  1 :   0.0000 0.0000 0.0000  plane waves:   23847
 k-point  2 :   0.5000 0.0000 0.0000  plane waves:   23844
 k-point  3 :   0.5000 0.5000 0.0000  plane waves:   23900
 k-point  4 :   0.5000 0.5000 0.5000  plane waves:   23984

 maximum and minimum number of plane-waves per node :      2020     1956

 maximum number of plane-waves:     23984
 maximum index in each direction: 
   IXMAX=   17   IYMAX=   17   IZMAX=   17
   IXMIN=  -18   IYMIN=  -18   IZMIN=  -18


 real space projection operators:
  total allocation   :      16156.75 KBytes
  max/ min on nodes  :       1379.41       1313.34


 parallel 3D FFT for wavefunctions:
    minimum data exchange during FFTs selected (reduces bandwidth)
 parallel 3D FFT for charge:
    minimum data exchange during FFTs selected (reduces bandwidth)


 total amount of memory used by VASP MPI-rank0   154729. kBytes
=======================================================================

   base      :      30000. kBytes
   nonlr-proj:       5460. kBytes
   fftplans  :       9381. kBytes
   grid      :      24648. kBytes
   one-center:        155. kBytes
   wavefun   :      85085. kBytes
 
     INWAV:  cpu time    0.0000: real time    0.0000
 Broyden mixing: mesh for mixing (old mesh)
   NGX = 35   NGY = 35   NGZ = 35
  (NGX  =144   NGY  =144   NGZ  =144)
  gives a total of  42875 points

 initial charge density was supplied:
 charge density of overlapping atoms calculated
 number of electron     453.0000000 magnetization     103.4000000
 keeping initial charge density in first step


--------------------------------------------------------------------------------------------------------


 Maximum index for non-local projection operator          323
 Maximum index for augmentation-charges         1389 (set IRDMAX)


--------------------------------------------------------------------------------------------------------


 First call to EWALD:  gamma=   0.185
 Maximum number of real-space cells 3x 3x 3
 Maximum number of reciprocal cells 3x 3x 3

    FEWALD:  cpu time    0.0032: real time    0.0032


--------------------------------------- Iteration      1(   1)  ---------------------------------------


    POTLOK:  cpu time    0.3453: real time    0.3495
    SETDIJ:  cpu time    0.0282: real time    0.0283
     EDDAV:  cpu time   19.9649: real time   20.0771
 BZINTS: Fermi energy: 25.704767;453.000000 electrons
         Band energy:1751.995408;  BLOECHL correction: -0.054606
       DOS:  cpu time    0.0033: real time    0.0033
    --------------------------------------------
      LOOP:  cpu time   20.3417: real time   20.4582

 eigenvalue-minimisations  :  5616
 total energy-change (2. order) : 0.5527298E+04  (-0.2107650E+05)
 number of electron     453.0000000 magnetization     103.4000000
 augmentation part      453.0000000 magnetization     103.4000000

 Free energy of the ion-electron system (eV)
  ---------------------------------------------------
  alpha Z        PSCENC =      1269.90711959
  Ewald energy   TEWEN  =    -29620.98704134
  -Hartree energ DENC   =    -23149.90314850
  -exchange      EXHF   =         0.00000000
  -V(xc)+E(xc)   XCENC  =      1710.13433294
  PAW double counting   =     44894.81802819   -47731.76596422
  entropy T*S    EENTRO =         0.00000000
  eigenvalues    EBANDS =      1751.99540830
  atomic energy  EATOM  =     56403.09886247
  Solvation  Ediel_sol  =         0.00000000
  ---------------------------------------------------
  free energy    TOTEN  =      5527.29759743 eV

  energy without entropy =     5527.29759743  energy(sigma->0) =     5527.29759743


--------------------------------------------------------------------------------------------------------




--------------------------------------- Iteration      1(   2)  ---------------------------------------


     EDDAV:  cpu time   18.6156: real time   18.7222
 BZINTS: Fermi energy: 11.462498;453.000000 electrons
         Band energy:***********;  BLOECHL correction: -0.018555
       DOS:  cpu time    0.0040: real time    0.0040
    --------------------------------------------
      LOOP:  cpu time   18.6195: real time   18.7262

 eigenvalue-minimisations  :  5168
 total energy-change (2. order) :-0.4865431E+04  (-0.4521731E+04)
 number of electron     453.0000000 magnetization     103.4000000
 augmentation part      453.0000000 magnetization     103.4000000

 Free energy of the ion-electron system (eV)
  ---------------------------------------------------
  alpha Z        PSCENC =      1269.90711959
  Ewald energy   TEWEN  =    -29620.98704134
  -Hartree energ DENC   =    -23149.90314850
  -exchange      EXHF   =         0.00000000
  -V(xc)+E(xc)   XCENC  =      1710.13433294
  PAW double counting   =     44894.81802819   -47731.76596422
  entropy T*S    EENTRO =         0.00000000
  eigenvalues    EBANDS =     -3113.43604406
  atomic energy  EATOM  =     56403.09886247
  Solvation  Ediel_sol  =         0.00000000
  ---------------------------------------------------
  free energy    TOTEN  =       661.86614507 eV

  energy without entropy =      661.86614507  energy(sigma->0) =      661.86614507


--------------------------------------------------------------------------------------------------------




--------------------------------------- Iteration      1(   3)  ---------------------------------------


     EDDAV:  cpu time   20.0265: real time   20.1380
 BZINTS: Fermi energy:  9.221849;453.000000 electrons
         Band energy:***********;  BLOECHL correction: -0.093569
       DOS:  cpu time    0.0036: real time    0.0036
    --------------------------------------------
      LOOP:  cpu time   20.0301: real time   20.1415

 eigenvalue-minimisations  :  5696
 total energy-change (2. order) :-0.8966213E+03  (-0.8034536E+03)
 number of electron     453.0000000 magnetization     103.4000000
 augmentation part      453.0000000 magnetization     103.4000000

 Free energy of the ion-electron system (eV)
  ---------------------------------------------------
  alpha Z        PSCENC =      1269.90711959
  Ewald energy   TEWEN  =    -29620.98704134
  -Hartree energ DENC   =    -23149.90314850
  -exchange      EXHF   =         0.00000000
  -V(xc)+E(xc)   XCENC  =      1710.13433294
  PAW double counting   =     44894.81802819   -47731.76596422
  entropy T*S    EENTRO =         0.00000000
  eigenvalues    EBANDS =     -4010.05729710
  atomic energy  EATOM  =     56403.09886247
  Solvation  Ediel_sol  =         0.00000000
  ---------------------------------------------------
  free energy    TOTEN  =      -234.75510797 eV

  energy without entropy =     -234.75510797  energy(sigma->0) =     -234.75510797


--------------------------------------------------------------------------------------------------------




--------------------------------------- Iteration      1(   4)  ---------------------------------------


     EDDAV:  cpu time   21.2707: real time   21.3898
 BZINTS: Fermi energy:  9.032877;453.000000 electrons
         Band energy:***********;  BLOECHL correction: -0.205631
       DOS:  cpu time    0.0035: real time    0.0035
    --------------------------------------------
      LOOP:  cpu time   21.2743: real time   21.3934

 eigenvalue-minimisations  :  6112
 total energy-change (2. order) :-0.8115479E+02  (-0.7928338E+02)
 number of electron     453.0000000 magnetization     103.4000000
 augmentation part      453.0000000 magnetization     103.4000000

 Free energy of the ion-electron system (eV)
  ---------------------------------------------------
  alpha Z        PSCENC =      1269.90711959
  Ewald energy   TEWEN  =    -29620.98704134
  -Hartree energ DENC   =    -23149.90314850
  -exchange      EXHF   =         0.00000000
  -V(xc)+E(xc)   XCENC  =      1710.13433294
  PAW double counting   =     44894.81802819   -47731.76596422
  entropy T*S    EENTRO =         0.00000000
  eigenvalues    EBANDS =     -4091.21208686
  atomic energy  EATOM  =     56403.09886247
  Solvation  Ediel_sol  =         0.00000000
  ---------------------------------------------------
  free energy    TOTEN  =      -315.90989772 eV

  energy without entropy =     -315.90989772  energy(sigma->0) =     -315.90989772


--------------------------------------------------------------------------------------------------------




--------------------------------------- Iteration      1(   5)  ---------------------------------------


     EDDAV:  cpu time   21.7049: real time   21.8291
 BZINTS: Fermi energy:  9.022711;453.000000 electrons
         Band energy:***********;  BLOECHL correction: -0.208411
       DOS:  cpu time    0.0035: real time    0.0035
    CHARGE:  cpu time    0.6714: real time    0.6743
    MIXING:  cpu time    0.0060: real time    0.0061
    --------------------------------------------
      LOOP:  cpu time   22.3858: real time   22.5130

 eigenvalue-minimisations  :  6264
 total energy-change (2. order) :-0.1932032E+01  (-0.1917624E+01)
 number of electron     452.9999928 magnetization      82.4300582
 augmentation part      110.9476135 magnetization      64.7143918

 Broyden mixing:
  rms(total) = 0.10169E+02    rms(broyden)= 0.10169E+02
  rms(prec ) = 0.11813E+02
  weight for this iteration     100.00

 Free energy of the ion-electron system (eV)
  ---------------------------------------------------
  alpha Z        PSCENC =      1269.90711959
  Ewald energy   TEWEN  =    -29620.98704134
  -Hartree energ DENC   =    -23149.90314850
  -exchange      EXHF   =         0.00000000
  -V(xc)+E(xc)   XCENC  =      1710.13433294
  PAW double counting   =     44894.81802819   -47731.76596422
  entropy T*S    EENTRO =         0.00000000
  eigenvalues    EBANDS =     -4093.14411894
  atomic energy  EATOM  =     56403.09886247
  Solvation  Ediel_sol  =         0.00000000
  ---------------------------------------------------
  free energy    TOTEN  =      -317.84192981 eV

  energy without entropy =     -317.84192981  energy(sigma->0) =     -317.84192981


--------------------------------------------------------------------------------------------------------




--------------------------------------- Iteration      1(   6)  ---------------------------------------


    POTLOK:  cpu time    0.3152: real time    0.3171
    SETDIJ:  cpu time    0.0264: real time    0.0265
     EDDAV:  cpu time   20.6274: real time   20.7398
 BZINTS: Fermi energy:  5.229155;453.000000 electrons
         Band energy:***********;  BLOECHL correction: -0.106617
       DOS:  cpu time    0.0035: real time    0.0036
    CHARGE:  cpu time    0.6667: real time    0.6695
    MIXING:  cpu time    0.0053: real time    0.0054
    --------------------------------------------
      LOOP:  cpu time   21.6446: real time   21.7618

 eigenvalue-minimisations  :  5864
 total energy-change (2. order) :-0.1373045E+03  (-0.5631181E+02)
 number of electron     452.9999896 magnetization      71.9513513
 augmentation part      168.8104814 magnetization      63.2900634

 Broyden mixing:
  rms(total) = 0.15987E+02    rms(broyden)= 0.15987E+02
  rms(prec ) = 0.19151E+02
  weight for this iteration     100.00

 eigenvalues of (default mixing * dielectric matrix)
  average eigenvalue GAMMA=   0.1366
  0.1366

 Free energy of the ion-electron system (eV)
  ---------------------------------------------------
  alpha Z        PSCENC =      1269.90711959
  Ewald energy   TEWEN  =    -29620.98704134
  -Hartree energ DENC   =    -21535.68540722
  -exchange      EXHF   =         0.00000000
  -V(xc)+E(xc)   XCENC  =      1650.73589349
  PAW double counting   =     49693.35623347   -52318.67673351
  entropy T*S    EENTRO =         0.00000000
  eigenvalues    EBANDS =     -5996.89537885
  atomic energy  EATOM  =     56403.09886247
  Solvation  Ediel_sol  =         0.00000000
  ---------------------------------------------------
  free energy    TOTEN  =      -455.14645189 eV

  energy without entropy =     -455.14645189  energy(sigma->0) =     -455.14645189


--------------------------------------------------------------------------------------------------------




--------------------------------------- Iteration      1(   7)  ---------------------------------------


    POTLOK:  cpu time    0.2832: real time    0.2859
    SETDIJ:  cpu time    0.0266: real time    0.0267
     EDDAV:  cpu time   21.1526: real time   21.2668
 BZINTS: Fermi energy:  5.971944;453.000000 electrons
         Band energy:***********;  BLOECHL correction: -0.224553
       DOS:  cpu time    0.0037: real time    0.0037
    CHARGE:  cpu time    0.6659: real time    0.6689
    MIXING:  cpu time    0.0060: real time    0.0060
    --------------------------------------------
      LOOP:  cpu time   22.1380: real time   22.2580

 eigenvalue-minimisations  :  6080
 total energy-change (2. order) : 0.1685620E+03  (-0.2660934E+02)
 number of electron     452.9999923 magnetization      48.7029713
 augmentation part      143.3209125 magnetization      44.7341444

 Broyden mixing:
  rms(total) = 0.59045E+01    rms(broyden)= 0.59023E+01
  rms(prec ) = 0.68016E+01
  weight for this iteration     100.00

 eigenvalues of (default mixing * dielectric matrix)
  average eigenvalue GAMMA=   0.5970
  0.5970  0.5970

 Free energy of the ion-electron system (eV)
  ---------------------------------------------------
  alpha Z        PSCENC =      1269.90711959
  Ewald energy   TEWEN  =    -29620.98704134
  -Hartree energ DENC   =    -22456.93812254
  -exchange      EXHF   =         0.00000000
  -V(xc)+E(xc)   XCENC  =      1669.28011385
  PAW double counting   =     53033.30790080   -55853.32013285
  entropy T*S    EENTRO =         0.00000000
  eigenvalues    EBANDS =     -4730.93317698
  atomic energy  EATOM  =     56403.09886247
  Solvation  Ediel_sol  =         0.00000000
  ---------------------------------------------------
  free energy    TOTEN  =      -286.58447699 eV

  energy without entropy =     -286.58447699  energy(sigma->0) =     -286.58447699


--------------------------------------------------------------------------------------------------------




--------------------------------------- Iteration      1(   8)  ---------------------------------------


    POTLOK:  cpu time    0.2671: real time    0.2688
    SETDIJ:  cpu time    0.0253: real time    0.0254
     EDDAV:  cpu time   22.2941: real time   22.4176
 BZINTS: Fermi energy:  6.771758;453.000000 electrons
         Band energy:***********;  BLOECHL correction: -0.319955
       DOS:  cpu time    0.0037: real time    0.0037
    CHARGE:  cpu time    0.6642: real time    0.6675
    MIXING:  cpu time    0.0064: real time    0.0064
    --------------------------------------------
      LOOP:  cpu time   23.2608: real time   23.3894

 eigenvalue-minimisations  :  6516
 total energy-change (2. order) :-0.2906713E+01  (-0.8396300E+01)
 number of electron     452.9999951 magnetization      29.4045135
 augmentation part      130.6568125 magnetization      27.1647851

 Broyden mixing:
  rms(total) = 0.30634E+01    rms(broyden)= 0.30616E+01
  rms(prec ) = 0.34893E+01
  weight for this iteration     100.00

 eigenvalues of (default mixing * dielectric matrix)
  average eigenvalue GAMMA=   0.7520
  1.1916  0.4569  0.6074

 Free energy of the ion-electron system (eV)
  ---------------------------------------------------
  alpha Z        PSCENC =      1269.90711959
  Ewald energy   TEWEN  =    -29620.98704134
  -Hartree energ DENC   =    -22780.42447587
  -exchange      EXHF   =         0.00000000
  -V(xc)+E(xc)   XCENC  =      1670.10514674
  PAW double counting   =     58347.50643164   -61201.70257389
  entropy T*S    EENTRO =         0.00000000
  eigenvalues    EBANDS =     -4376.99465922
  atomic energy  EATOM  =     56403.09886247
  Solvation  Ediel_sol  =         0.00000000
  ---------------------------------------------------
  free energy    TOTEN  =      -289.49118988 eV

  energy without entropy =     -289.49118988  energy(sigma->0) =     -289.49118988


--------------------------------------------------------------------------------------------------------




--------------------------------------- Iteration      1(   9)  ---------------------------------------


    POTLOK:  cpu time    0.2721: real time    0.2737
    SETDIJ:  cpu time    0.0254: real time    0.0255
     EDDAV:  cpu time   21.8921: real time   22.0142
 BZINTS: Fermi energy:  6.935933;453.000000 electrons
         Band energy:***********;  BLOECHL correction: -0.005844
       DOS:  cpu time    0.0035: real time    0.0035
    CHARGE:  cpu time    0.6832: real time    0.6868
    MIXING:  cpu time    0.0074: real time    0.0074
    --------------------------------------------
      LOOP:  cpu time   22.8837: real time   23.0111

 eigenvalue-minimisations  :  6376
 total energy-change (2. order) :-0.2977676E+02  (-0.7922748E+01)
 number of electron     452.9999865 magnetization      17.5269997
 augmentation part      127.9439463 magnetization      14.0520400

 Broyden mixing:
  rms(total) = 0.69047E+01    rms(broyden)= 0.69031E+01
  rms(prec ) = 0.98805E+01
  weight for this iteration     100.00

 eigenvalues of (default mixing * dielectric matrix)
  average eigenvalue GAMMA=   0.6672
  1.4326  0.5072  0.5072  0.2219

 Free energy of the ion-electron system (eV)
  ---------------------------------------------------
  alpha Z        PSCENC =      1269.90711959
  Ewald energy   TEWEN  =    -29620.98704134
  -Hartree energ DENC   =    -22764.72781574
  -exchange      EXHF   =         0.00000000
  -V(xc)+E(xc)   XCENC  =      1665.68327374
  PAW double counting   =     61913.70980063   -64758.96017076
  entropy T*S    EENTRO =         0.00000000
  eigenvalues    EBANDS =     -4426.99197579
  atomic energy  EATOM  =     56403.09886247
  Solvation  Ediel_sol  =         0.00000000
  ---------------------------------------------------
  free energy    TOTEN  =      -319.26794720 eV

  energy without entropy =     -319.26794720  energy(sigma->0) =     -319.26794720


--------------------------------------------------------------------------------------------------------




--------------------------------------- Iteration      1(  10)  ---------------------------------------


    POTLOK:  cpu time    0.2755: real time    0.2772
    SETDIJ:  cpu time    0.0254: real time    0.0255
     EDDAV:  cpu time   20.9225: real time   21.0398
 BZINTS: Fermi energy:  6.747226;453.000000 electrons
         Band energy:***********;  BLOECHL correction: -0.239034
       DOS:  cpu time    0.0035: real time    0.0035
    CHARGE:  cpu time    0.6878: real time    0.6913
    MIXING:  cpu time    0.0071: real time    0.0071
    --------------------------------------------
      LOOP:  cpu time   21.9216: real time   22.0443

 eigenvalue-minimisations  :  6040
 total energy-change (2. order) : 0.1997409E+02  (-0.3185752E+01)
 number of electron     452.9999932 magnetization      14.1540251
 augmentation part      133.3786884 magnetization      12.1830875

 Broyden mixing:
  rms(total) = 0.24451E+01    rms(broyden)= 0.24431E+01
  rms(prec ) = 0.34371E+01
  weight for this iteration     100.00

 eigenvalues of (default mixing * dielectric matrix)
  average eigenvalue GAMMA=   0.6693
  1.5936  0.6618  0.4657  0.4657  0.1595

 Free energy of the ion-electron system (eV)
  ---------------------------------------------------
  alpha Z        PSCENC =      1269.90711959
  Ewald energy   TEWEN  =    -29620.98704134
  -Hartree energ DENC   =    -22730.90932485
  -exchange      EXHF   =         0.00000000
  -V(xc)+E(xc)   XCENC  =      1663.37948400
  PAW double counting   =     64102.56851322   -66944.07385434
  entropy T*S    EENTRO =         0.00000000
  eigenvalues    EBANDS =     -4442.27761906
  atomic energy  EATOM  =     56403.09886247
  Solvation  Ediel_sol  =         0.00000000
  ---------------------------------------------------
  free energy    TOTEN  =      -299.29386030 eV

  energy without entropy =     -299.29386030  energy(sigma->0) =     -299.29386030


--------------------------------------------------------------------------------------------------------




--------------------------------------- Iteration      1(  11)  ---------------------------------------


    POTLOK:  cpu time    0.2678: real time    0.2694
    SETDIJ:  cpu time    0.0254: real time    0.0255
     EDDAV:  cpu time   21.9212: real time   22.0451
 BZINTS: Fermi energy:  6.721462;453.000000 electrons
         Band energy:***********;  BLOECHL correction: -0.143719
       DOS:  cpu time    0.0035: real time    0.0036
    CHARGE:  cpu time    0.6746: real time    0.6778
    MIXING:  cpu time    0.0076: real time    0.0076
    --------------------------------------------
      LOOP:  cpu time   22.9000: real time   23.0289

 eigenvalue-minimisations  :  6432
 total energy-change (2. order) :-0.1374307E+01  (-0.1899156E+01)
 number of electron     452.9999936 magnetization      10.5857940
 augmentation part      132.8252259 magnetization       9.2595022

 Broyden mixing:
  rms(total) = 0.24107E+01    rms(broyden)= 0.24086E+01
  rms(prec ) = 0.33077E+01
  weight for this iteration     100.00

 eigenvalues of (default mixing * dielectric matrix)
  average eigenvalue GAMMA=   0.6212
  1.6646  0.7706  0.4758  0.4758  0.1886  0.1519

 Free energy of the ion-electron system (eV)
  ---------------------------------------------------
  alpha Z        PSCENC =      1269.90711959
  Ewald energy   TEWEN  =    -29620.98704134
  -Hartree energ DENC   =    -22749.73067224
  -exchange      EXHF   =         0.00000000
  -V(xc)+E(xc)   XCENC  =      1663.36231901
  PAW double counting   =     64368.61344404   -67212.42249141
  entropy T*S    EENTRO =         0.00000000
  eigenvalues    EBANDS =     -4422.50970709
  atomic energy  EATOM  =     56403.09886247
  Solvation  Ediel_sol  =         0.00000000
  ---------------------------------------------------
  free energy    TOTEN  =      -300.66816696 eV

  energy without entropy =     -300.66816696  energy(sigma->0) =     -300.66816696


--------------------------------------------------------------------------------------------------------




--------------------------------------- Iteration      1(  12)  ---------------------------------------


    POTLOK:  cpu time    0.3084: real time    0.3103
    SETDIJ:  cpu time    0.0267: real time    0.0268
     EDDAV:  cpu time   20.3700: real time   20.4808
 BZINTS: Fermi energy:  6.921875;453.000000 electrons
         Band energy:***********;  BLOECHL correction: -0.491606
       DOS:  cpu time    0.0036: real time    0.0036
    CHARGE:  cpu time    0.7070: real time    0.7105
    MIXING:  cpu time    0.0087: real time    0.0088
    --------------------------------------------
      LOOP:  cpu time   21.4245: real time   21.5408

 eigenvalue-minimisations  :  5829
 total energy-change (2. order) : 0.1757901E+01  (-0.7908141E+00)
 number of electron     452.9999941 magnetization       9.3930539
 augmentation part      132.4092243 magnetization       7.8587036

 Broyden mixing:
  rms(total) = 0.92212E+00    rms(broyden)= 0.92085E+00
  rms(prec ) = 0.11764E+01
  weight for this iteration     100.00

 eigenvalues of (default mixing * dielectric matrix)
  average eigenvalue GAMMA=   0.6320
  1.4838  1.0935  0.5030  0.5030  0.5067  0.1832  0.1511

 Free energy of the ion-electron system (eV)
  ---------------------------------------------------
  alpha Z        PSCENC =      1269.90711959
  Ewald energy   TEWEN  =    -29620.98704134
  -Hartree energ DENC   =    -22774.80860229
  -exchange      EXHF   =         0.00000000
  -V(xc)+E(xc)   XCENC  =      1663.69222471
  PAW double counting   =     64321.71429775   -67168.39039129
  entropy T*S    EENTRO =         0.00000000
  eigenvalues    EBANDS =     -4393.13673580
  atomic energy  EATOM  =     56403.09886247
  Solvation  Ediel_sol  =         0.00000000
  ---------------------------------------------------
  free energy    TOTEN  =      -298.91026620 eV

  energy without entropy =     -298.91026620  energy(sigma->0) =     -298.91026620


--------------------------------------------------------------------------------------------------------




--------------------------------------- Iteration      1(  13)  ---------------------------------------


    POTLOK:  cpu time    0.3216: real time    0.3237
    SETDIJ:  cpu time    0.0265: real time    0.0266
     EDDAV:  cpu time   21.0446: real time   21.1720
 BZINTS: Fermi energy:  6.903939;453.000000 electrons
         Band energy:***********;  BLOECHL correction: -0.403569
       DOS:  cpu time    0.0035: real time    0.0036
    CHARGE:  cpu time    0.7032: real time    0.7075
    MIXING:  cpu time    0.0090: real time    0.0090
    --------------------------------------------
      LOOP:  cpu time   22.1084: real time   22.2423

 eigenvalue-minimisations  :  6128
 total energy-change (2. order) :-0.4020710E+00  (-0.4136732E+00)
 number of electron     452.9999933 magnetization       7.1555092
 augmentation part      132.2910898 magnetization       5.7383147

 Broyden mixing:
  rms(total) = 0.10075E+01    rms(broyden)= 0.10070E+01
  rms(prec ) = 0.13603E+01
  weight for this iteration     100.00

 eigenvalues of (default mixing * dielectric matrix)
  average eigenvalue GAMMA=   0.6542
  1.5512  1.5512  0.5958  0.5091  0.5091  0.2086  0.1544  0.1544

 Free energy of the ion-electron system (eV)
  ---------------------------------------------------
  alpha Z        PSCENC =      1269.90711959
  Ewald energy   TEWEN  =    -29620.98704134
  -Hartree energ DENC   =    -22779.72337119
  -exchange      EXHF   =         0.00000000
  -V(xc)+E(xc)   XCENC  =      1663.78909019
  PAW double counting   =     64125.44952840   -66972.12199457
  entropy T*S    EENTRO =         0.00000000
  eigenvalues    EBANDS =     -4388.72453081
  atomic energy  EATOM  =     56403.09886247
  Solvation  Ediel_sol  =         0.00000000
  ---------------------------------------------------
  free energy    TOTEN  =      -299.31233725 eV

  energy without entropy =     -299.31233725  energy(sigma->0) =     -299.31233725


--------------------------------------------------------------------------------------------------------




--------------------------------------- Iteration      1(  14)  ---------------------------------------


    POTLOK:  cpu time    0.3078: real time    0.3108
    SETDIJ:  cpu time    0.0267: real time    0.0268
     EDDAV:  cpu time   20.6741: real time   20.7882
 BZINTS: Fermi energy:  6.936438;453.000000 electrons
         Band energy:***********;  BLOECHL correction: -0.502495
       DOS:  cpu time    0.0035: real time    0.0036
    CHARGE:  cpu time    0.6947: real time    0.6981
    MIXING:  cpu time    0.0089: real time    0.0090
    --------------------------------------------
      LOOP:  cpu time   21.7158: real time   21.8365

 eigenvalue-minimisations  :  5976
 total energy-change (2. order) :-0.5988317E-01  (-0.2564373E+00)
 number of electron     452.9999941 magnetization       5.9704658
 augmentation part      132.3431560 magnetization       4.8109250

 Broyden mixing:
  rms(total) = 0.58425E+00    rms(broyden)= 0.58380E+00
  rms(prec ) = 0.78616E+00
  weight for this iteration     100.00

 eigenvalues of (default mixing * dielectric matrix)
  average eigenvalue GAMMA=   0.6555
  1.6438  1.6438  0.5859  0.5859  0.4715  0.4715  0.1758  0.1758  0.1451

 Free energy of the ion-electron system (eV)
  ---------------------------------------------------
  alpha Z        PSCENC =      1269.90711959
  Ewald energy   TEWEN  =    -29620.98704134
  -Hartree energ DENC   =    -22787.35281562
  -exchange      EXHF   =         0.00000000
  -V(xc)+E(xc)   XCENC  =      1664.04797728
  PAW double counting   =     63674.95125767   -66521.00434251
  entropy T*S    EENTRO =         0.00000000
  eigenvalues    EBANDS =     -4382.03323796
  atomic energy  EATOM  =     56403.09886247
  Solvation  Ediel_sol  =         0.00000000
  ---------------------------------------------------
  free energy    TOTEN  =      -299.37222042 eV

  energy without entropy =     -299.37222042  energy(sigma->0) =     -299.37222042


--------------------------------------------------------------------------------------------------------




--------------------------------------- Iteration      1(  15)  ---------------------------------------


    POTLOK:  cpu time    0.3111: real time    0.3131
    SETDIJ:  cpu time    0.0268: real time    0.0269
     EDDAV:  cpu time   20.4906: real time   20.6011
 BZINTS: Fermi energy:  6.940718;453.000000 electrons
         Band energy:***********;  BLOECHL correction: -0.466629
       DOS:  cpu time    0.0034: real time    0.0035
    CHARGE:  cpu time    0.6986: real time    0.7019
    MIXING:  cpu time    0.0093: real time    0.0093
    --------------------------------------------
      LOOP:  cpu time   21.5398: real time   21.6559

 eigenvalue-minimisations  :  5904
 total energy-change (2. order) :-0.4951038E-01  (-0.9986883E-01)
 number of electron     452.9999938 magnetization       3.3384295
 augmentation part      132.3054739 magnetization       2.1993578

 Broyden mixing:
  rms(total) = 0.53753E+00    rms(broyden)= 0.53717E+00
  rms(prec ) = 0.73709E+00
  weight for this iteration     100.00

 eigenvalues of (default mixing * dielectric matrix)
  average eigenvalue GAMMA=   0.7001
  1.8349  1.8349  0.9617  0.7072  0.4903  0.4903  0.1974  0.1485  0.1676  0.1676

 Free energy of the ion-electron system (eV)
  ---------------------------------------------------
  alpha Z        PSCENC =      1269.90711959
  Ewald energy   TEWEN  =    -29620.98704134
  -Hartree energ DENC   =    -22792.53645996
  -exchange      EXHF   =         0.00000000
  -V(xc)+E(xc)   XCENC  =      1664.20838814
  PAW double counting   =     63557.01908933   -66402.86979633
  entropy T*S    EENTRO =         0.00000000
  eigenvalues    EBANDS =     -4377.26189271
  atomic energy  EATOM  =     56403.09886247
  Solvation  Ediel_sol  =         0.00000000
  ---------------------------------------------------
  free energy    TOTEN  =      -299.42173080 eV

  energy without entropy =     -299.42173080  energy(sigma->0) =     -299.42173080


--------------------------------------------------------------------------------------------------------




--------------------------------------- Iteration      1(  16)  ---------------------------------------


    POTLOK:  cpu time    0.3202: real time    0.3221
    SETDIJ:  cpu time    0.0274: real time    0.0275
     EDDAV:  cpu time   20.3892: real time   20.5066
 BZINTS: Fermi energy:  6.975606;453.000000 electrons
         Band energy:***********;  BLOECHL correction: -0.512655
       DOS:  cpu time    0.0033: real time    0.0033
    CHARGE:  cpu time    0.6989: real time    0.7025
    MIXING:  cpu time    0.0091: real time    0.0092
    --------------------------------------------
      LOOP:  cpu time   21.4481: real time   21.5712

 eigenvalue-minimisations  :  5848
 total energy-change (2. order) : 0.3866208E-01  (-0.4963816E-01)
 number of electron     452.9999938 magnetization       2.3587670
 augmentation part      132.0954502 magnetization       1.6300366

 Broyden mixing:
  rms(total) = 0.18560E+00    rms(broyden)= 0.18535E+00
  rms(prec ) = 0.22842E+00
  weight for this iteration     100.00

 eigenvalues of (default mixing * dielectric matrix)
  average eigenvalue GAMMA=   0.7213
  2.2700  1.5128  1.1154  0.8138  0.5604  0.4921  0.4921  0.1989  0.1466  0.1660
  0.1660

 Free energy of the ion-electron system (eV)
  ---------------------------------------------------
  alpha Z        PSCENC =      1269.90711959
  Ewald energy   TEWEN  =    -29620.98704134
  -Hartree energ DENC   =    -22806.40240265
  -exchange      EXHF   =         0.00000000
  -V(xc)+E(xc)   XCENC  =      1664.60411173
  PAW double counting   =     63429.80862953   -66275.30186107
  entropy T*S    EENTRO =         0.00000000
  eigenvalues    EBANDS =     -4364.11048699
  atomic energy  EATOM  =     56403.09886247
  Solvation  Ediel_sol  =         0.00000000
  ---------------------------------------------------
  free energy    TOTEN  =      -299.38306872 eV

  energy without entropy =     -299.38306872  energy(sigma->0) =     -299.38306872


--------------------------------------------------------------------------------------------------------




--------------------------------------- Iteration      1(  17)  ---------------------------------------


    POTLOK:  cpu time    0.3080: real time    0.3112
    SETDIJ:  cpu time    0.0271: real time    0.0272
     EDDAV:  cpu time   20.1487: real time   20.2610
 BZINTS: Fermi energy:  6.977993;453.000000 electrons
         Band energy:***********;  BLOECHL correction: -0.520745
       DOS:  cpu time    0.0034: real time    0.0035
    CHARGE:  cpu time    0.6932: real time    0.6965
    MIXING:  cpu time    0.0096: real time    0.0096
    --------------------------------------------
      LOOP:  cpu time   21.1899: real time   21.3089

 eigenvalue-minimisations  :  5768
 total energy-change (2. order) :-0.1850918E-01  (-0.8542899E-02)
 number of electron     452.9999938 magnetization       2.1131366
 augmentation part      132.0887161 magnetization       1.5387362

 Broyden mixing:
  rms(total) = 0.10498E+00    rms(broyden)= 0.10488E+00
  rms(prec ) = 0.12835E+00
  weight for this iteration     100.00

 eigenvalues of (default mixing * dielectric matrix)
  average eigenvalue GAMMA=   0.7421
  2.4876  1.2218  1.2218  1.0286  0.6429  0.6429  0.4914  0.4914  0.1968  0.1470
  0.1668  0.1668

 Free energy of the ion-electron system (eV)
  ---------------------------------------------------
  alpha Z        PSCENC =      1269.90711959
  Ewald energy   TEWEN  =    -29620.98704134
  -Hartree energ DENC   =    -22807.92500963
  -exchange      EXHF   =         0.00000000
  -V(xc)+E(xc)   XCENC  =      1664.58809360
  PAW double counting   =     63496.45755178   -66341.11595585
  entropy T*S    EENTRO =         0.00000000
  eigenvalues    EBANDS =     -4363.42519852
  atomic energy  EATOM  =     56403.09886247
  Solvation  Ediel_sol  =         0.00000000
  ---------------------------------------------------
  free energy    TOTEN  =      -299.40157790 eV

  energy without entropy =     -299.40157790  energy(sigma->0) =     -299.40157790


--------------------------------------------------------------------------------------------------------




--------------------------------------- Iteration      1(  18)  ---------------------------------------


    POTLOK:  cpu time    0.3091: real time    0.3110
    SETDIJ:  cpu time    0.0267: real time    0.0267
     EDDAV:  cpu time   20.8625: real time   20.9776
 BZINTS: Fermi energy:  6.978848;453.000000 electrons
         Band energy:***********;  BLOECHL correction: -0.526524
       DOS:  cpu time    0.0036: real time    0.0036
    CHARGE:  cpu time    0.7076: real time    0.7110
    MIXING:  cpu time    0.0105: real time    0.0106
    --------------------------------------------
      LOOP:  cpu time   21.9199: real time   22.0405

 eigenvalue-minimisations  :  6072
 total energy-change (2. order) :-0.8534067E-02  (-0.1477384E-02)
 number of electron     452.9999938 magnetization       1.8398101
 augmentation part      132.0765000 magnetization       1.3397972

 Broyden mixing:
  rms(total) = 0.84691E-01    rms(broyden)= 0.84625E-01
  rms(prec ) = 0.96229E-01
  weight for this iteration     100.00

 eigenvalues of (default mixing * dielectric matrix)
  average eigenvalue GAMMA=   0.7886
  2.6758  1.3823  1.3823  1.1374  0.7669  0.7669  0.4875  0.4875  0.4878  0.1971
  0.1667  0.1667  0.1469

 Free energy of the ion-electron system (eV)
  ---------------------------------------------------
  alpha Z        PSCENC =      1269.90711959
  Ewald energy   TEWEN  =    -29620.98704134
  -Hartree energ DENC   =    -22807.88241712
  -exchange      EXHF   =         0.00000000
  -V(xc)+E(xc)   XCENC  =      1664.55289556
  PAW double counting   =     63513.57979577   -66357.89483504
  entropy T*S    EENTRO =         0.00000000
  eigenvalues    EBANDS =     -4363.78449186
  atomic energy  EATOM  =     56403.09886247
  Solvation  Ediel_sol  =         0.00000000
  ---------------------------------------------------
  free energy    TOTEN  =      -299.41011197 eV

  energy without entropy =     -299.41011197  energy(sigma->0) =     -299.41011197


--------------------------------------------------------------------------------------------------------




--------------------------------------- Iteration      1(  19)  ---------------------------------------


    POTLOK:  cpu time    0.3071: real time    0.3093
    SETDIJ:  cpu time    0.0266: real time    0.0267
     EDDAV:  cpu time   22.1623: real time   22.2857
 BZINTS: Fermi energy:  6.979835;453.000000 electrons
         Band energy:***********;  BLOECHL correction: -0.530365
       DOS:  cpu time    0.0034: real time    0.0034
    CHARGE:  cpu time    0.7114: real time    0.7151
    MIXING:  cpu time    0.0116: real time    0.0116
    --------------------------------------------
      LOOP:  cpu time   23.2224: real time   23.3519

 eigenvalue-minimisations  :  6544
 total energy-change (2. order) :-0.7033335E-02  (-0.4027524E-03)
 number of electron     452.9999938 magnetization       1.5142873
 augmentation part      132.0678548 magnetization       1.0766846

 Broyden mixing:
  rms(total) = 0.66930E-01    rms(broyden)= 0.66869E-01
  rms(prec ) = 0.76618E-01
  weight for this iteration     100.00

 eigenvalues of (default mixing * dielectric matrix)
  average eigenvalue GAMMA=   0.8538
  3.0208  1.6580  1.6580  0.9533  0.9533  0.9311  0.5574  0.5574  0.4935  0.4935
  0.1971  0.1667  0.1667  0.1469

 Free energy of the ion-electron system (eV)
  ---------------------------------------------------
  alpha Z        PSCENC =      1269.90711959
  Ewald energy   TEWEN  =    -29620.98704134
  -Hartree energ DENC   =    -22808.05597612
  -exchange      EXHF   =         0.00000000
  -V(xc)+E(xc)   XCENC  =      1664.53536969
  PAW double counting   =     63506.66342883   -66350.65022202
  entropy T*S    EENTRO =         0.00000000
  eigenvalues    EBANDS =     -4363.92868641
  atomic energy  EATOM  =     56403.09886247
  Solvation  Ediel_sol  =         0.00000000
  ---------------------------------------------------
  free energy    TOTEN  =      -299.41714530 eV

  energy without entropy =     -299.41714530  energy(sigma->0) =     -299.41714530


--------------------------------------------------------------------------------------------------------




--------------------------------------- Iteration      1(  20)  ---------------------------------------


    POTLOK:  cpu time    0.3163: real time    0.3183
    SETDIJ:  cpu time    0.0274: real time    0.0275
     EDDAV:  cpu time   22.1677: real time   22.2912
 BZINTS: Fermi energy:  6.982590;453.000000 electrons
         Band energy:***********;  BLOECHL correction: -0.533734
       DOS:  cpu time    0.0032: real time    0.0032
    CHARGE:  cpu time    0.7102: real time    0.7138
    MIXING:  cpu time    0.0111: real time    0.0112
    --------------------------------------------
      LOOP:  cpu time   23.2360: real time   23.3654

 eigenvalue-minimisations  :  6544
 total energy-change (2. order) :-0.5707986E-02  (-0.2260826E-03)
 number of electron     452.9999938 magnetization       1.1243618
 augmentation part      132.0431704 magnetization       0.7629111

 Broyden mixing:
  rms(total) = 0.45765E-01    rms(broyden)= 0.45665E-01
  rms(prec ) = 0.51591E-01
  weight for this iteration     100.00

 eigenvalues of (default mixing * dielectric matrix)
  average eigenvalue GAMMA=   0.9449
  3.7186  1.7662  1.7662  1.4369  0.9888  0.9888  0.6603  0.6603  0.4906  0.4906
  0.5292  0.1971  0.1469  0.1667  0.1667

 Free energy of the ion-electron system (eV)
  ---------------------------------------------------
  alpha Z        PSCENC =      1269.90711959
  Ewald energy   TEWEN  =    -29620.98704134
  -Hartree energ DENC   =    -22808.87236423
  -exchange      EXHF   =         0.00000000
  -V(xc)+E(xc)   XCENC  =      1664.54363848
  PAW double counting   =     63470.12202451   -66313.88551617
  entropy T*S    EENTRO =         0.00000000
  eigenvalues    EBANDS =     -4363.34957660
  atomic energy  EATOM  =     56403.09886247
  Solvation  Ediel_sol  =         0.00000000
  ---------------------------------------------------
  free energy    TOTEN  =      -299.42285329 eV

  energy without entropy =     -299.42285329  energy(sigma->0) =     -299.42285329


--------------------------------------------------------------------------------------------------------




--------------------------------------- Iteration      1(  21)  ---------------------------------------


    POTLOK:  cpu time    0.3126: real time    0.3145
    SETDIJ:  cpu time    0.0269: real time    0.0271
     EDDAV:  cpu time   22.7874: real time   22.9168
 BZINTS: Fermi energy:  6.986129;453.000000 electrons
         Band energy:***********;  BLOECHL correction: -0.536540
       DOS:  cpu time    0.0035: real time    0.0035
    CHARGE:  cpu time    0.7057: real time    0.7094
    MIXING:  cpu time    0.0113: real time    0.0113
    --------------------------------------------
      LOOP:  cpu time   23.8474: real time   23.9825

 eigenvalue-minimisations  :  6776
 total energy-change (2. order) :-0.4698153E-02  (-0.2949422E-03)
 number of electron     452.9999938 magnetization       0.8176282
 augmentation part      132.0063759 magnetization       0.5391997

 Broyden mixing:
  rms(total) = 0.26582E-01    rms(broyden)= 0.26377E-01
  rms(prec ) = 0.29474E-01
  weight for this iteration     100.00

 eigenvalues of (default mixing * dielectric matrix)
  average eigenvalue GAMMA=   1.0157
  4.2251  2.0775  2.0775  1.3360  1.3360  0.8562  0.8562  0.4909  0.4909  0.6682
  0.6213  0.5384  0.1971  0.1469  0.1667  0.1667

 Free energy of the ion-electron system (eV)
  ---------------------------------------------------
  alpha Z        PSCENC =      1269.90711959
[...]
 -----------------------------------------------------------------------------------
      0.00213     -0.00156     -0.00156        -0.004524      0.001342      0.001342
      2.38279      7.19950      7.19950         0.003704      0.001351      0.001351
      4.80292     -0.00156      4.79923        -0.001342      0.001342      0.004524
      4.80292      4.79923     -0.00156        -0.001342      0.004524      0.001342
      7.20459      2.41857      7.19950        -0.001351     -0.003704      0.001351
      7.20459      7.19950      2.41857        -0.001351      0.001351     -0.003704
      1.91194      2.88942      2.88942         0.185883     -0.185883     -0.185883
      1.20970      1.19348      6.03695         0.002833      0.002844      0.000434
      8.37744      8.38740      6.02665        -0.003520     -0.002119      0.003520
      3.61218      1.18918      8.42869        -0.013905      0.013905      0.005224
      6.00035      8.40374      8.40374        -0.004759      0.004759      0.004759
      1.22041      3.58096      8.36699        -0.002585      0.002585      0.004824
      8.37744      6.02665      8.38740        -0.003520      0.003520     -0.002119
      3.60788      3.59166      6.03695        -0.002844     -0.002833      0.000434
      6.01669      6.02665      6.02665         0.002119      0.003520      0.003520
      3.61218      8.42869      1.18918        -0.013905      0.005224      0.013905
      3.60788      6.03695      3.59166        -0.002844      0.000434     -0.002833
      1.20970      6.03695      1.19348         0.002833      0.000434      0.002844
      1.22041      8.36699      3.58096        -0.002585      0.004824      0.002585
      8.36714      3.59166      1.19348        -0.000434     -0.002833      0.002844
      8.36714      1.19348      3.59166        -0.000434      0.002844     -0.002833
      5.97540      1.18918      1.18918        -0.005224      0.013905      0.013905
      6.03710      3.58096      3.58096        -0.004824      0.002585      0.002585
      1.01015      1.05727      3.79121         0.006236      0.000153     -0.006236
      6.12744      8.27664      6.14175        -0.002746      0.002746      0.003759
      3.71777      1.08359      1.08359        -0.032712      0.032712      0.032712
      8.26234      8.27664      8.27664        -0.003759      0.002746      0.002746
      1.01015      3.79121      1.05727         0.006236     -0.006236      0.000153
      6.12744      6.14175      8.27664        -0.002746      0.003759      0.002746
      3.74409      3.79121      3.79121        -0.000153     -0.006236     -0.006236
      8.24200      6.16208      6.16208         0.002077     -0.002077     -0.002077
      1.05535      5.86791      8.50079        -0.004623      0.004365     -0.000785
      3.47547      8.28497      3.45273        -0.002890     -0.004681      0.011044
      1.05535      8.50079      5.86791        -0.004623     -0.000785      0.004365
      3.47825      6.14115      1.32311        -0.001045      0.007988      0.001045
      3.73254      8.53192      8.53192        -0.007953      0.010653      0.010653
      1.37285      6.11605      3.42851         0.000160      0.028223     -0.000160
      3.71857      5.88278      5.88278        -0.001719     -0.002680     -0.002680
      1.34863      8.28497      1.32589        -0.011044     -0.004681      0.002890
      5.87217      1.06882      8.53192        -0.010653      0.007953      0.010653
      3.47825      1.32311      6.14115        -0.001045      0.001045      0.007988
      8.53618      3.74601      8.50079        -0.004365      0.004623     -0.000785
      1.37285      3.42851      6.11605         0.000160     -0.000160      0.028223
      8.52131      1.08279      5.88278         0.002680      0.001719     -0.002680
      1.34863      1.32589      8.28497        -0.011044      0.002890     -0.004681
      5.90329      3.74601      5.86791         0.000785      0.004623      0.004365
      3.47547      3.45273      8.28497        -0.002890      0.011044     -0.004681
      5.90329      5.86791      3.74601         0.000785      0.004365      0.004623
      8.52131      5.88278      1.08279         0.002680     -0.002680      0.001719
      5.87217      8.53192      1.06882        -0.010653      0.010653      0.007953
      8.53618      8.50079      3.74601        -0.004365     -0.000785      0.004623
      8.28804      3.42851      3.42851        -0.028223     -0.000160     -0.000160
      8.26294      1.32311      1.32311        -0.007988      0.001045      0.001045
      6.11912      1.32589      3.45273         0.004681      0.002890      0.011044
      6.11912      3.45273      1.32589         0.004681      0.011044      0.002890
 -----------------------------------------------------------------------------------
    total drift:                                0.010450     -0.010451     -0.010451


--------------------------------------------------------------------------------------------------------



  FREE ENERGIE OF THE ION-ELECTRON SYSTEM (eV)
  ---------------------------------------------------
  free  energy   TOTEN  =      -299.59079468 eV

  energy  without entropy=     -299.59079468  energy(sigma->0) =     -299.59079468
 
 d Force = 0.1505398E-02[ 0.143E-02, 0.159E-02]  d Energy = 0.1602019E-02-0.966E-04
 d Force = 0.4367521E-01[ 0.426E-01, 0.448E-01]  d Ewald  = 0.4367866E-01-0.345E-05


--------------------------------------------------------------------------------------------------------


    POTLOK:  cpu time    0.3386: real time    0.3403


--------------------------------------------------------------------------------------------------------


  energy of chain is (eV)         0.000000 for this image         0.000000
  tangential force (eV/A)        -0.281546
  left and right image   0.446160  0.435731 A
 TANGENT                                        CHAIN-FORCE (eV/Angst)
 -----------------------------------------------------------------------------------
      0.01081      0.00044      0.00044         0.003043      0.000125      0.000125
     -0.00416     -0.00799     -0.00799        -0.001173     -0.002248     -0.002248
     -0.00044      0.00044     -0.01081        -0.000125      0.000125     -0.003043
     -0.00044     -0.01081      0.00044        -0.000125     -0.003043      0.000125
      0.00799      0.00416     -0.00799         0.002248      0.001173     -0.002248
      0.00799     -0.00799      0.00416         0.002248     -0.002248      0.001173
     -0.55861      0.55861      0.55861        -0.157274      0.157274      0.157274
     -0.00174     -0.01536     -0.02069        -0.000490     -0.004325     -0.005826
      0.00245     -0.00071     -0.00245         0.000690     -0.000201     -0.000690
      0.02663     -0.02663     -0.01763         0.007498     -0.007498     -0.004963
      0.00778     -0.00778     -0.00778         0.002190     -0.002190     -0.002190
      0.00243     -0.00243     -0.01925         0.000685     -0.000685     -0.005419
      0.00245     -0.00245     -0.00071         0.000690     -0.000690     -0.000201
      0.01536      0.00174     -0.02069         0.004325      0.000490     -0.005826
      0.00071     -0.00245     -0.00245         0.000201     -0.000690     -0.000690
      0.02663     -0.01763     -0.02663         0.007498     -0.004963     -0.007498
      0.01536     -0.02069      0.00174         0.004325     -0.005826      0.000490
     -0.00174     -0.02069     -0.01536        -0.000490     -0.005826     -0.004325
      0.00243     -0.01925     -0.00243         0.000685     -0.005419     -0.000685
      0.02069      0.00174     -0.01536         0.005826      0.000490     -0.004325
      0.02069     -0.01536      0.00174         0.005826     -0.004325      0.000490
      0.01763     -0.02663     -0.02663         0.004963     -0.007498     -0.007498
      0.01925     -0.00243     -0.00243         0.005419     -0.000685     -0.000685
      0.01322     -0.01793     -0.01322         0.003723     -0.005048     -0.003723
      0.00099     -0.00099     -0.00748         0.000278     -0.000278     -0.002107
      0.09408     -0.09408     -0.09408         0.026487     -0.026487     -0.026487
      0.00748     -0.00099     -0.00099         0.002107     -0.000278     -0.000278
      0.01322     -0.01322     -0.01793         0.003723     -0.003723     -0.005048
      0.00099     -0.00748     -0.00099         0.000278     -0.002107     -0.000278
      0.01793     -0.01322     -0.01322         0.005048     -0.003723     -0.003723
      0.00070     -0.00070     -0.00070         0.000197     -0.000197     -0.000197
      0.00086     -0.00613     -0.00280         0.000243     -0.001725     -0.000788
      0.00316     -0.01025     -0.00879         0.000889     -0.002885     -0.002474
      0.00086     -0.00280     -0.00613         0.000243     -0.000788     -0.001725
      0.00020     -0.02356     -0.00020         0.000056     -0.006633     -0.000056
      0.01247     -0.01855     -0.01855         0.003510     -0.005222     -0.005222
      0.00388     -0.07721     -0.00388         0.001093     -0.021739     -0.001093
      0.00391     -0.00472     -0.00472         0.001101     -0.001330     -0.001330
      0.00879     -0.01025     -0.00316         0.002474     -0.002885     -0.000889
      0.01855     -0.01247     -0.01855         0.005222     -0.003510     -0.005222
      0.00020     -0.00020     -0.02356         0.000056     -0.000056     -0.006633
      0.00613     -0.00086     -0.00280         0.001725     -0.000243     -0.000788
      0.00388     -0.00388     -0.07721         0.001093     -0.001093     -0.021739
      0.00472     -0.00391     -0.00472         0.001330     -0.001101     -0.001330
      0.00879     -0.00316     -0.01025         0.002474     -0.000889     -0.002885
      0.00280     -0.00086     -0.00613         0.000788     -0.000243     -0.001725
      0.00316     -0.00879     -0.01025         0.000889     -0.002474     -0.002885
      0.00280     -0.00613     -0.00086         0.000788     -0.001725     -0.000243
      0.00472     -0.00472     -0.00391         0.001330     -0.001330     -0.001101
      0.01855     -0.01855     -0.01247         0.005222     -0.005222     -0.003510
      0.00613     -0.00280     -0.00086         0.001725     -0.000788     -0.000243
      0.07721     -0.00388     -0.00388         0.021739     -0.001093     -0.001093
      0.02356     -0.00020     -0.00020         0.006633     -0.000056     -0.000056
      0.01025     -0.00316     -0.00879         0.002885     -0.000889     -0.002474
      0.01025     -0.00879     -0.00316         0.002885     -0.002474     -0.000889
 -----------------------------------------------------------------------------------
 CHAIN + TOTAL  (eV/Angst)
 ----------------------------------------------
     -0.00148      0.00147      0.00147
      0.00253     -0.00090     -0.00090
     -0.00147      0.00147      0.00148
     -0.00147      0.00148      0.00147
      0.00090     -0.00253     -0.00090
      0.00090     -0.00090     -0.00253
      0.02861     -0.02861     -0.02861
      0.00234     -0.00148     -0.00539
     -0.00283     -0.00232      0.00283
     -0.00641      0.00641      0.00026
     -0.00257      0.00257      0.00257
     -0.00190      0.00190     -0.00060
     -0.00283      0.00283     -0.00232
      0.00148     -0.00234     -0.00539
      0.00232      0.00283      0.00283
     -0.00641      0.00026      0.00641
      0.00148     -0.00539     -0.00234
      0.00234     -0.00539     -0.00148
     -0.00190     -0.00060      0.00190
      0.00539     -0.00234     -0.00148
      0.00539     -0.00148     -0.00234
     -0.00026      0.00641      0.00641
      0.00060      0.00190      0.00190
      0.00996     -0.00489     -0.00996
     -0.00247      0.00247      0.00165
     -0.00623      0.00623      0.00623
     -0.00165      0.00247      0.00247
      0.00996     -0.00996     -0.00489
     -0.00247      0.00165      0.00247
      0.00489     -0.00996     -0.00996
      0.00227     -0.00227     -0.00227
     -0.00438      0.00264     -0.00157
     -0.00200     -0.00757      0.00857
     -0.00438     -0.00157      0.00264
     -0.00099      0.00135      0.00099
     -0.00444      0.00543      0.00543
      0.00125      0.00648     -0.00125
     -0.00062     -0.00401     -0.00401
     -0.00857     -0.00757      0.00200
     -0.00543      0.00444      0.00543
     -0.00099      0.00099      0.00135
     -0.00264      0.00438     -0.00157
      0.00125     -0.00125      0.00648
      0.00401      0.00062     -0.00401
     -0.00857      0.00200     -0.00757
      0.00157      0.00438      0.00264
     -0.00200      0.00857     -0.00757
      0.00157      0.00264      0.00438
      0.00401     -0.00401      0.00062
     -0.00543      0.00543      0.00444
     -0.00264     -0.00157      0.00438
     -0.00648     -0.00125     -0.00125
     -0.00135      0.00099      0.00099
      0.00757      0.00200      0.00857
      0.00757      0.00857      0.00200
 ----------------------------------------------
 Quasi-Newton relaxation of ions (Broydens 2nd method)
  g(Force)  = 0.390E-02   g(Stress)= 0.000E+00

 retain information from N=  2 steps
 eigenvalues of (default step * inverse Hessian matrix)
  average eigenvalue of G=   7.2050
 eigenvalue spectrum of G is  7.2050  7.2050


--------------------------------------------------------------------------------------------------------


  
 reached required accuracy - stopping structural energy minimisation
     LOOP+:  cpu time  246.8175: real time  248.0999
    4ORBIT:  cpu time    0.0000: real time    0.0000
 


 total charge     
 
# of ion       s       p       d       tot
------------------------------------------
    1        0.387   0.362   0.000   0.749
    2        0.387   0.365   0.000   0.752
    3        0.386   0.361   0.000   0.746
    4        0.386   0.361   0.000   0.747
    5        0.387   0.365   0.000   0.752
    6        0.386   0.365   0.000   0.751
    7        0.409   0.341   0.000   0.750
    8        0.420   6.526   7.381  14.326
    9        0.420   6.524   7.400  14.344
   10        0.418   6.521   7.403  14.342
   11        0.414   6.515   7.433  14.362
   12        0.412   6.499   7.439  14.351
   13        0.420   6.523   7.389  14.333
   14        0.419   6.525   7.461  14.405
   15        0.419   6.523   7.467  14.409
   16        0.418   6.521   7.412  14.350
   17        0.419   6.525   7.471  14.415
   18        0.420   6.525   7.361  14.307
   19        0.411   6.500   7.415  14.326
   20        0.420   6.525   7.392  14.337
   21        0.420   6.525   7.421  14.366
   22        0.417   6.519   7.447  14.383
   23        0.411   6.500   7.415  14.325
   24        1.332   2.393   0.000   3.726
   25        1.327   2.387   0.000   3.714
   26        1.348   2.311   0.000   3.659
   27        1.327   2.381   0.000   3.709
   28        1.332   2.394   0.000   3.726
   29        1.327   2.386   0.000   3.713
   30        1.332   2.394   0.000   3.726
   31        1.360   2.295   0.000   3.656
   32        1.329   2.390   0.000   3.718
   33        1.326   2.388   0.000   3.714
   34        1.328   2.389   0.000   3.717
   35        1.328   2.385   0.000   3.713
   36        1.329   2.381   0.000   3.709
   37        1.359   2.294   0.000   3.653
   38        1.330   2.388   0.000   3.718
   39        1.326   2.383   0.000   3.709
   40        1.329   2.383   0.000   3.712
   41        1.327   2.385   0.000   3.713
   42        1.328   2.388   0.000   3.716
   43        1.359   2.298   0.000   3.658
   44        1.329   2.386   0.000   3.715
   45        1.327   2.383   0.000   3.710
   46        1.329   2.390   0.000   3.719
   47        1.327   2.388   0.000   3.714
   48        1.329   2.390   0.000   3.719
   49        1.328   2.384   0.000   3.713
   50        1.329   2.384   0.000   3.713
   51        1.328   2.387   0.000   3.715
   52        1.358   2.290   0.000   3.648
   53        1.329   2.381   0.000   3.710
   54        1.326   2.389   0.000   3.715
   55        1.326   2.388   0.000   3.714
--------------------------------------------------
tot         52.054 182.750 118.707 353.512
 


 magnetization (x)
 
# of ion       s       p       d       tot
------------------------------------------
    1       -0.000  -0.000   0.000  -0.000
    2        0.000   0.000   0.000   0.000
    3        0.000  -0.000   0.000   0.000
    4        0.000   0.000   0.000   0.000
    5       -0.000  -0.000   0.000  -0.000
    6       -0.000  -0.000   0.000  -0.000
    7        0.000   0.000   0.000   0.000
    8       -0.000   0.000  -0.001  -0.001
    9        0.000   0.000   0.000   0.000
   10        0.000   0.000   0.000   0.000
   11       -0.000   0.000   0.000   0.000
   12       -0.000  -0.000  -0.000  -0.000
   13        0.000   0.000   0.000   0.000
   14        0.000  -0.000   0.001   0.001
   15       -0.000  -0.000  -0.000  -0.000
   16        0.000   0.000   0.001   0.001
   17       -0.000   0.000   0.001   0.001
   18       -0.000   0.000  -0.001  -0.001
   19        0.000   0.000  -0.000  -0.000
   20        0.000  -0.000   0.000   0.000
   21        0.000  -0.000  -0.000  -0.000
   22       -0.000  -0.000  -0.001  -0.001
   23        0.000  -0.000   0.000   0.000
   24        0.000  -0.000   0.000  -0.000
   25        0.000  -0.000   0.000   0.000
   26        0.000  -0.000   0.000  -0.000
   27       -0.000  -0.000   0.000  -0.000
   28        0.000  -0.000   0.000  -0.000
   29        0.000   0.000   0.000   0.000
   30       -0.000   0.000   0.000   0.000
   31        0.000  -0.000   0.000  -0.000
   32       -0.000   0.000   0.000  -0.000
   33        0.000   0.000   0.000   0.000
   34        0.000   0.000   0.000   0.000
   35        0.000  -0.000   0.000   0.000
   36        0.000   0.000   0.000   0.000
   37        0.000   0.000   0.000   0.000
   38       -0.000   0.000   0.000   0.000
   39       -0.000   0.000   0.000  -0.000
   40       -0.000  -0.000   0.000  -0.000
   41        0.000  -0.000   0.000   0.000
   42        0.000  -0.000   0.000   0.000
   43       -0.000  -0.000   0.000  -0.000
   44       -0.000  -0.000   0.000  -0.000
   45       -0.000  -0.000   0.000  -0.000
   46       -0.000  -0.000   0.000  -0.000
   47        0.000   0.000   0.000   0.000
   48       -0.000  -0.000   0.000  -0.000
   49        0.000  -0.000   0.000  -0.000
   50       -0.000   0.000   0.000  -0.000
   51        0.000   0.000   0.000   0.000
   52       -0.000  -0.000   0.000  -0.000
   53       -0.000   0.000   0.000  -0.000
   54       -0.000  -0.000   0.000  -0.000
   55        0.000  -0.000   0.000   0.000
--------------------------------------------------
tot          0.000  -0.000   0.000   0.000
 
 BZINTS: Fermi energy:  6.991851;453.000000 electrons
         Band energy:***********;  BLOECHL correction: -0.543289

 total amount of memory used by VASP MPI-rank0   154729. kBytes
=======================================================================

   base      :      30000. kBytes
   nonlr-proj:       5460. kBytes
   fftplans  :       9381. kBytes
   grid      :      24648. kBytes
   one-center:        155. kBytes
   wavefun   :      85085. kBytes
 
  
  
 General timing and accounting informations for this job:
 ========================================================
  
                  Total CPU time used (sec):     2724.784
                            User time (sec):     2722.900
                          System time (sec):        1.884
                         Elapsed time (sec):     2739.749
  
                   Maximum memory used (kb):      398868.
                   Average memory used (kb):           0.
  
                          Minor page faults:       564953
                          Major page faults:           52
                 Voluntary context switches:        27690
