  50  50   0   0
  0.1860805E+02  0.7654997E-09  0.7654997E-09  0.1833370E-08  0.1250000E-15
  1.000000000000000E-004
  CAR 
 unknown system                          
      8.74288547    -13.45196327  301      0.29666803      1.00000000
    -13.452  0.0000E+00  0.0000E+00
    -13.378  0.0000E+00  0.0000E+00
    -13.304 -0.2036E-32 -0.1506E-33
    -13.230 -0.3681E-27 -0.2724E-28
    -13.156 -0.2208E-22 -0.1633E-23
    -13.082 -0.4382E-18 -0.3242E-19
    -13.008 -0.2782E-14 -0.2058E-15
    -12.934 -0.5938E-11 -0.4395E-12
    -12.860 -0.4116E-08 -0.3049E-09
    -12.786 -0.9121E-06 -0.6778E-07
    -12.712 -0.6238E-04 -0.4683E-05
    -12.638 -0.1190E-02 -0.9272E-04
    -12.564 -0.3537E-02 -0.3544E-03
    -12.490  0.2436E-01  0.1448E-02
    -12.416  0.7731E-01  0.7167E-02
    -12.342  0.4177E-01  0.1026E-01
    -12.268 -0.1238E-02  0.1017E-01
    -12.194 -0.2076E-02  0.1001E-01
    -12.120 -0.1634E-03  0.1000E-01
    -12.046 -0.3362E-05  0.1000E-01
    -11.972 -0.2099E-07  0.1000E-01
    -11.898 -0.4159E-10  0.1000E-01
    -11.824 -0.2669E-13  0.1000E-01
    -11.750  0.0000E+00  0.1000E-01
    -11.676  0.0000E+00  0.1000E-01
    -11.602  0.0000E+00  0.1000E-01
    -11.528  0.0000E+00  0.1000E-01
    -11.454  0.0000E+00  0.1000E-01
    -11.380  0.0000E+00  0.1000E-01
    -11.306  0.0000E+00  0.1000E-01
    -11.232  0.0000E+00  0.1000E-01
    -11.158  0.0000E+00  0.1000E-01
    -11.085  0.0000E+00  0.1000E-01
    -11.011  0.0000E+00  0.1000E-01
    -10.937  0.0000E+00  0.1000E-01
    -10.863  0.0000E+00  0.1000E-01
    -10.789  0.0000E+00  0.1000E-01
    -10.715  0.0000E+00  0.1000E-01
    -10.641  0.0000E+00  0.1000E-01
    -10.567  0.0000E+00  0.1000E-01
    -10.493  0.0000E+00  0.1000E-01
    -10.419  0.0000E+00  0.1000E-01
    -10.345  0.0000E+00  0.1000E-01
    -10.271  0.0000E+00  0.1000E-01
    -10.197  0.0000E+00  0.1000E-01
    -10.123  0.0000E+00  0.1000E-01
    -10.049  0.0000E+00  0.1000E-01
     -9.975  0.0000E+00  0.1000E-01
     -9.901  0.0000E+00  0.1000E-01
     -9.827  0.0000E+00  0.1000E-01
     -9.753  0.0000E+00  0.1000E-01
     -9.679 -0.1895E-35  0.1000E-01
     -9.605 -0.4819E-30  0.1000E-01
     -9.531 -0.3603E-25  0.1000E-01
     -9.457 -0.9076E-21  0.1000E-01
     -9.383 -0.7578E-17  0.1000E-01
     -9.309 -0.2127E-13  0.1000E-01
     -9.235 -0.2025E-10  0.1000E-01
     -9.161 -0.6423E-08  0.1000E-01
     -9.087 -0.6679E-06  0.1000E-01
     -9.013 -0.2194E-04  0.9998E-02
     -8.939 -0.1982E-03  0.9984E-02
     -8.865 -0.3809E-04  0.9981E-02
     -8.791  0.3416E-02  0.1023E-01
     -8.717  0.8748E-02  0.1088E-01
     -8.643  0.1046E-01  0.1165E-01
     -8.569  0.1029E-01  0.1242E-01
     -8.495  0.1031E-01  0.1318E-01
     -8.421  0.1009E-01  0.1393E-01
     -8.347  0.1091E-01  0.1473E-01
     -8.273  0.9349E-02  0.1542E-01
     -8.199  0.1171E-01  0.1629E-01
     -8.125  0.9910E-02  0.1702E-01
     -8.051  0.9485E-02  0.1773E-01
     -7.977  0.1268E-01  0.1866E-01
     -7.903  0.9801E-02  0.1939E-01
     -7.829  0.1459E-01  0.2047E-01
     -7.755  0.2398E-01  0.2224E-01
     -7.681  0.2102E-01  0.2380E-01
     -7.607  0.1880E-01  0.2519E-01
     -7.533  0.2347E-01  0.2692E-01
     -7.459  0.2534E-01  0.2880E-01
     -7.385  0.1772E-01  0.3011E-01
     -7.311  0.2003E-01  0.3159E-01
     -7.237  0.2639E-01  0.3354E-01
     -7.163  0.2249E-01  0.3521E-01
     -7.089  0.2178E-01  0.3682E-01
     -7.015  0.1948E-01  0.3826E-01
     -6.941  0.2513E-01  0.4012E-01
     -6.867  0.2680E-01  0.4210E-01
     -6.794  0.2117E-01  0.4367E-01
     -6.720  0.1747E-01  0.4496E-01
     -6.646  0.2770E-01  0.4701E-01
     -6.572  0.3316E-01  0.4946E-01
     -6.498  0.2631E-01  0.5141E-01
     -6.424  0.3146E-01  0.5374E-01
     -6.350  0.4063E-01  0.5674E-01
     -6.276  0.4144E-01  0.5981E-01
     -6.202  0.3372E-01  0.6230E-01
     -6.128  0.3622E-01  0.6498E-01
     -6.054  0.3780E-01  0.6778E-01
     -5.980  0.4122E-01  0.7083E-01
     -5.906  0.4128E-01  0.7388E-01
     -5.832  0.4514E-01  0.7722E-01
     -5.758  0.3751E-01  0.8000E-01
     -5.684  0.3958E-01  0.8293E-01
     -5.610  0.5010E-01  0.8663E-01
     -5.536  0.5182E-01  0.9047E-01
     -5.462  0.4445E-01  0.9376E-01
     -5.388  0.4525E-01  0.9710E-01
     -5.314  0.7880E-01  0.1029E+00
     -5.240  0.1066E+00  0.1108E+00
     -5.166  0.9787E-01  0.1181E+00
     -5.092  0.8114E-01  0.1241E+00
     -5.018  0.1015E+00  0.1316E+00
     -4.944  0.1918E+00  0.1458E+00
     -4.870  0.2109E+00  0.1614E+00
     -4.796  0.1520E+00  0.1726E+00
     -4.722  0.1542E+00  0.1840E+00
     -4.648  0.1575E+00  0.1957E+00
     -4.574  0.1872E+00  0.2095E+00
     -4.500  0.2202E+00  0.2258E+00
     -4.426  0.2285E+00  0.2427E+00
     -4.352  0.2396E+00  0.2604E+00
     -4.278  0.2267E+00  0.2772E+00
     -4.204  0.2002E+00  0.2920E+00
     -4.130  0.2638E+00  0.3115E+00
     -4.056  0.3965E+00  0.3409E+00
     -3.982  0.4538E+00  0.3744E+00
     -3.908  0.4951E+00  0.4111E+00
     -3.834  0.4856E+00  0.4470E+00
     -3.760  0.4420E+00  0.4797E+00
     -3.686  0.4373E+00  0.5120E+00
     -3.612  0.3990E+00  0.5416E+00
     -3.538  0.3892E+00  0.5704E+00
     -3.464  0.3984E+00  0.5998E+00
     -3.390  0.3654E+00  0.6269E+00
     -3.316  0.4792E+00  0.6623E+00
     -3.242  0.6507E+00  0.7105E+00
     -3.168  0.5768E+00  0.7531E+00
     -3.094  0.4942E+00  0.7897E+00
     -3.020  0.5210E+00  0.8282E+00
     -2.946  0.5978E+00  0.8725E+00
     -2.872  0.6291E+00  0.9190E+00
     -2.798  0.6439E+00  0.9667E+00
     -2.724  0.8099E+00  0.1027E+01
     -2.650  0.1022E+01  0.1102E+01
     -2.576  0.9787E+00  0.1175E+01
     -2.503  0.9061E+00  0.1242E+01
     -2.429  0.8939E+00  0.1308E+01
     -2.355  0.8415E+00  0.1370E+01
     -2.281  0.7833E+00  0.1428E+01
     -2.207  0.7525E+00  0.1484E+01
     -2.133  0.6795E+00  0.1534E+01
     -2.059  0.6610E+00  0.1583E+01
     -1.985  0.7753E+00  0.1640E+01
     -1.911  0.8124E+00  0.1700E+01
     -1.837  0.8301E+00  0.1762E+01
     -1.763  0.8220E+00  0.1822E+01
     -1.689  0.8415E+00  0.1885E+01
     -1.615  0.8745E+00  0.1949E+01
     -1.541  0.8981E+00  0.2016E+01
     -1.467  0.1021E+01  0.2091E+01
     -1.393  0.1207E+01  0.2181E+01
     -1.319  0.1195E+01  0.2269E+01
     -1.245  0.7688E+00  0.2326E+01
     -1.171  0.3193E+00  0.2350E+01
     -1.097  0.1510E+00  0.2361E+01
     -1.023  0.1024E+00  0.2368E+01
     -0.949  0.9941E-01  0.2376E+01
     -0.875  0.1272E+00  0.2385E+01
     -0.801  0.1278E+00  0.2395E+01
     -0.727  0.1260E+00  0.2404E+01
     -0.653  0.1573E+00  0.2416E+01
     -0.579  0.1539E+00  0.2427E+01
     -0.505  0.1233E+00  0.2436E+01
     -0.431  0.1164E+00  0.2445E+01
     -0.357  0.1096E+00  0.2453E+01
     -0.283  0.8614E-01  0.2459E+01
     -0.209  0.7790E-01  0.2465E+01
     -0.135  0.8249E-01  0.2471E+01
     -0.061  0.9362E-01  0.2478E+01
      0.013  0.9208E-01  0.2485E+01
      0.087  0.7811E-01  0.2491E+01
      0.161  0.5368E-01  0.2495E+01
      0.235  0.5781E-01  0.2499E+01
      0.309  0.1029E+00  0.2506E+01
      0.383  0.1082E+00  0.2514E+01
      0.457  0.7418E-01  0.2520E+01
      0.531  0.4751E-01  0.2523E+01
      0.605  0.4770E-01  0.2527E+01
      0.679  0.6692E-01  0.2532E+01
      0.753  0.8824E-01  0.2538E+01
      0.827  0.9351E-01  0.2545E+01
      0.901  0.8537E-01  0.2552E+01
      0.975  0.6265E-01  0.2556E+01
      1.049  0.4557E-01  0.2560E+01
      1.123  0.5780E-01  0.2564E+01
      1.197  0.5948E-01  0.2568E+01
      1.271  0.7762E-01  0.2574E+01
      1.345  0.1006E+00  0.2582E+01
      1.419  0.9506E-01  0.2589E+01
      1.493  0.6557E-01  0.2593E+01
      1.567  0.3195E-01  0.2596E+01
      1.641  0.3578E-01  0.2598E+01
      1.715  0.5704E-01  0.2603E+01
      1.788  0.8967E-01  0.2609E+01
      1.862  0.9922E-01  0.2617E+01
      1.936  0.7805E-01  0.2622E+01
      2.010  0.6906E-01  0.2628E+01
      2.084  0.5527E-01  0.2632E+01
      2.158  0.5379E-01  0.2636E+01
      2.232  0.6916E-01  0.2641E+01
      2.306  0.7297E-01  0.2646E+01
      2.380  0.7101E-01  0.2651E+01
      2.454  0.8099E-01  0.2657E+01
      2.528  0.6765E-01  0.2662E+01
      2.602  0.5163E-01  0.2666E+01
      2.676  0.5132E-01  0.2670E+01
      2.750  0.6974E-01  0.2675E+01
      2.824  0.5154E-01  0.2679E+01
      2.898  0.4114E-01  0.2682E+01
      2.972  0.6422E-01  0.2687E+01
      3.046  0.6190E-01  0.2691E+01
      3.120  0.6205E-01  0.2696E+01
      3.194  0.6424E-01  0.2701E+01
      3.268  0.5335E-01  0.2705E+01
      3.342  0.5187E-01  0.2708E+01
      3.416  0.5985E-01  0.2713E+01
      3.490  0.7067E-01  0.2718E+01
      3.564  0.6804E-01  0.2723E+01
      3.638  0.6962E-01  0.2728E+01
      3.712  0.5756E-01  0.2733E+01
      3.786  0.5440E-01  0.2737E+01
      3.860  0.7235E-01  0.2742E+01
      3.934  0.6498E-01  0.2747E+01
      4.008  0.5133E-01  0.2751E+01
      4.082  0.4121E-01  0.2754E+01
      4.156  0.4272E-01  0.2757E+01
      4.230  0.5102E-01  0.2760E+01
      4.304  0.5192E-01  0.2764E+01
      4.378  0.4362E-01  0.2768E+01
      4.452  0.4445E-01  0.2771E+01
      4.526  0.6215E-01  0.2775E+01
      4.600  0.7323E-01  0.2781E+01
      4.674  0.6991E-01  0.2786E+01
      4.748  0.6591E-01  0.2791E+01
      4.822  0.6836E-01  0.2796E+01
      4.896  0.6835E-01  0.2801E+01
      4.970  0.6453E-01  0.2806E+01
      5.044  0.6752E-01  0.2811E+01
      5.118  0.8468E-01  0.2817E+01
      5.192  0.7006E-01  0.2822E+01
      5.266  0.4780E-01  0.2826E+01
      5.340  0.5853E-01  0.2830E+01
      5.414  0.8994E-01  0.2837E+01
      5.488  0.9920E-01  0.2844E+01
      5.562  0.9320E-01  0.2851E+01
      5.636  0.8664E-01  0.2857E+01
      5.710  0.1003E+00  0.2865E+01
      5.784  0.1039E+00  0.2873E+01
      5.858  0.9886E-01  0.2880E+01
      5.932  0.9843E-01  0.2887E+01
      6.006  0.9695E-01  0.2894E+01
      6.080  0.9740E-01  0.2901E+01
      6.153  0.9993E-01  0.2909E+01
      6.227  0.1138E+00  0.2917E+01
      6.301  0.1176E+00  0.2926E+01
      6.375  0.9981E-01  0.2933E+01
      6.449  0.1037E+00  0.2941E+01
      6.523  0.1189E+00  0.2950E+01
      6.597  0.1075E+00  0.2958E+01
      6.671  0.9784E-01  0.2965E+01
      6.745  0.9533E-01  0.2972E+01
      6.819  0.8933E-01  0.2979E+01
      6.893  0.9526E-01  0.2986E+01
      6.967  0.1143E+00  0.2994E+01
      7.041  0.1178E+00  0.3003E+01
      7.115  0.1098E+00  0.3011E+01
      7.189  0.1147E+00  0.3020E+01
      7.263  0.1033E+00  0.3027E+01
      7.337  0.6740E-01  0.3032E+01
      7.411  0.4769E-01  0.3036E+01
      7.485  0.4130E-01  0.3039E+01
      7.559  0.1381E-01  0.3040E+01
      7.633 -0.1145E-02  0.3040E+01
      7.707  0.8274E-03  0.3040E+01
      7.781  0.2621E-02  0.3040E+01
      7.855  0.7346E-03  0.3040E+01
      7.929 -0.1299E-03  0.3040E+01
      8.003 -0.3649E-04  0.3040E+01
      8.077 -0.1766E-05  0.3040E+01
      8.151 -0.2417E-07  0.3040E+01
      8.225 -0.1028E-09  0.3040E+01
      8.299 -0.1404E-12  0.3040E+01
      8.373 -0.6251E-16  0.3040E+01
      8.447  0.0000E+00  0.3040E+01
      8.521  0.0000E+00  0.3040E+01
      8.595  0.0000E+00  0.3040E+01
      8.669  0.0000E+00  0.3040E+01
      8.743  0.0000E+00  0.3040E+01
