       N       E                     dE             d eps       ncg     rms          rms(c)
DAV:   1     0.401347286209E+04    0.40135E+04   -0.19101E+05 51680   0.180E+03
DAV:   2     0.382314609621E+03   -0.36312E+04   -0.34621E+04 51680   0.428E+02
DAV:   3    -0.997690517037E+02   -0.48208E+03   -0.43967E+03 51712   0.179E+02
DAV:   4    -0.126083319165E+03   -0.26314E+02   -0.25816E+02 55928   0.462E+01
DAV:   5    -0.126528123694E+03   -0.44480E+00   -0.44208E+00 58408   0.483E+00
DAV:   6    -0.126541304823E+03   -0.13181E-01   -0.13174E-01 56840   0.713E-01
DAV:   7    -0.126541849557E+03   -0.54473E-03   -0.54469E-03 59680   0.145E-01
DAV:   8    -0.126541882182E+03   -0.32625E-04   -0.32625E-04 69528   0.320E-02
DAV:   9    -0.126541883650E+03   -0.14676E-05   -0.14676E-05 59520   0.465E-03
DAV:  10    -0.126541883673E+03   -0.23203E-07   -0.23061E-07 36968   0.598E-04    0.472E+01
RMM:  11    -0.145286290170E+03   -0.18744E+02   -0.46503E+02 51726   0.760E+01    0.436E+01
RMM:  12    -0.184260602620E+03   -0.38974E+02   -0.18084E+02 51701   0.330E+01    0.603E+01
RMM:  13    -0.112460125107E+03    0.71800E+02   -0.37252E+01 51739   0.170E+01    0.248E+01
RMM:  14    -0.931446788248E+02    0.19315E+02   -0.17310E+01 51898   0.122E+01    0.142E+01
RMM:  15    -0.898861051882E+02    0.32586E+01   -0.24726E+00 51866   0.424E+00    0.108E+01
RMM:  16    -0.864015282349E+02    0.34846E+01   -0.45051E+00 51975   0.527E+00    0.412E+00
RMM:  17    -0.860652152495E+02    0.33631E+00   -0.62816E-01 51910   0.217E+00    0.273E+00
RMM:  18    -0.860994836429E+02   -0.34268E-01   -0.39718E-01 51929   0.157E+00    0.291E+00
RMM:  19    -0.858833809329E+02    0.21610E+00   -0.82737E-02 51773   0.621E-01    0.174E+00
RMM:  20    -0.858272067113E+02    0.56174E-01   -0.45434E-02 52045   0.548E-01    0.783E-01
RMM:  21    -0.858121199767E+02    0.15087E-01   -0.14262E-02 51959   0.292E-01    0.401E-01
RMM:  22    -0.857954484394E+02    0.16672E-01   -0.15899E-02 51848   0.271E-01    0.296E-01
RMM:  23    -0.857896879053E+02    0.57605E-02   -0.43561E-03 51976   0.139E-01    0.243E-01
RMM:  24    -0.857838199911E+02    0.58679E-02   -0.20192E-03 51888   0.112E-01    0.214E-01
RMM:  25    -0.857787084010E+02    0.51116E-02   -0.29305E-03 51884   0.123E-01    0.136E-01
RMM:  26    -0.857773190735E+02    0.13893E-02   -0.53657E-04 51685   0.492E-02    0.327E-02
RMM:  27    -0.857773094643E+02    0.96092E-05   -0.21490E-04 51898   0.311E-02    0.346E-02
RMM:  28    -0.857774579805E+02   -0.14852E-03   -0.74905E-05 51891   0.204E-02    0.188E-02
RMM:  29    -0.857776482633E+02   -0.19028E-03   -0.60147E-05 51681   0.105E-02    0.143E-02
RMM:  30    -0.857776882758E+02   -0.40012E-04   -0.17877E-05 51681   0.733E-03    0.777E-03
RMM:  31    -0.857777002411E+02   -0.11965E-04   -0.54455E-06 51501   0.390E-03    0.407E-03
RMM:  32    -0.857777060886E+02   -0.58475E-05   -0.46610E-06 48245   0.265E-03    0.412E-03
RMM:  33    -0.857777061501E+02   -0.61555E-07   -0.26162E-07 31967   0.916E-04
   1 F= -.85777706E+02 E0= -.85771517E+02  d E =-.857777E+02
       N       E                     dE             d eps       ncg     rms          rms(c)
DAV:   1    -0.857785844652E+02   -0.87838E-03   -0.59703E-02 53712   0.465E-01    0.219E-02
RMM:   2    -0.857786354314E+02   -0.50966E-04   -0.60110E-04 51977   0.689E-02    0.153E-02
RMM:   3    -0.857786635221E+02   -0.28091E-04   -0.10813E-04 62634   0.165E-02    0.269E-02
RMM:   4    -0.857786410099E+02    0.22512E-04   -0.86880E-06 52713   0.629E-03    0.120E-02
RMM:   5    -0.857786395885E+02    0.14213E-05   -0.37247E-06 51724   0.543E-03    0.938E-03
RMM:   6    -0.857786392256E+02    0.36292E-06   -0.90655E-06 51689   0.529E-03    0.691E-03
RMM:   7    -0.857786395516E+02   -0.32601E-06   -0.52323E-06 52734   0.450E-03    0.441E-03
RMM:   8    -0.857786390553E+02    0.49637E-06   -0.58057E-07 35789   0.150E-03    0.299E-03
RMM:   9    -0.857786388739E+02    0.18138E-06   -0.28200E-07 30655   0.114E-03    0.184E-03
RMM:  10    -0.857786387890E+02    0.84838E-07   -0.26688E-07 30352   0.843E-04
   2 F= -.85778639E+02 E0= -.85772445E+02  d E =-.932639E-03
       N       E                     dE             d eps       ncg     rms          rms(c)
DAV:   1    -0.857802047134E+02   -0.15658E-02   -0.53733E-01 52608   0.140E+00    0.659E-02
RMM:   2    -0.857806434530E+02   -0.43874E-03   -0.54125E-03 51973   0.207E-01    0.435E-02
RMM:   3    -0.857808446689E+02   -0.20122E-03   -0.96956E-04 62337   0.504E-02    0.738E-02
RMM:   4    -0.857807020413E+02    0.14263E-03   -0.75713E-05 53732   0.178E-02    0.372E-02
RMM:   5    -0.857806824577E+02    0.19584E-04   -0.31658E-05 52033   0.157E-02    0.284E-02
RMM:   6    -0.857806736331E+02    0.88246E-05   -0.65981E-05 51811   0.153E-02    0.229E-02
RMM:   7    -0.857806743335E+02   -0.70037E-06   -0.63621E-05 52626   0.148E-02    0.137E-02
RMM:   8    -0.857806691197E+02    0.52138E-05   -0.68623E-06 51744   0.550E-03    0.990E-03
RMM:   9    -0.857806669043E+02    0.22153E-05   -0.26875E-06 51278   0.308E-03    0.608E-03
RMM:  10    -0.857806660713E+02    0.83300E-06   -0.22513E-06 46018   0.215E-03    0.297E-03
RMM:  11    -0.857806658353E+02    0.23602E-06   -0.21047E-06 47241   0.181E-03    0.785E-04
RMM:  12    -0.857806658839E+02   -0.48567E-07   -0.24054E-07 31437   0.101E-03
   3 F= -.85780666E+02 E0= -.85774461E+02  d E =-.295973E-02
       N       E                     dE             d eps       ncg     rms          rms(c)
DAV:   1    -0.857793773033E+02    0.12885E-02   -0.21497E+00 51744   0.279E+00    0.132E-01
RMM:   2    -0.857811319713E+02   -0.17547E-02   -0.21716E-02 51977   0.414E-01    0.890E-02
RMM:   3    -0.857819606992E+02   -0.82873E-03   -0.39003E-03 62292   0.100E-01    0.151E-01
RMM:   4    -0.857813545446E+02    0.60615E-03   -0.30761E-04 53460   0.359E-02    0.740E-02
RMM:   5    -0.857812754170E+02    0.79128E-04   -0.12489E-04 52022   0.308E-02    0.569E-02
RMM:   6    -0.857812371889E+02    0.38228E-04   -0.24031E-04 51835   0.302E-02    0.481E-02
RMM:   7    -0.857812327117E+02    0.44772E-05   -0.26883E-04 52513   0.303E-02    0.262E-02
RMM:   8    -0.857812123526E+02    0.20359E-04   -0.28446E-05 51852   0.117E-02    0.194E-02
RMM:   9    -0.857812034586E+02    0.88940E-05   -0.10260E-05 51650   0.624E-03    0.119E-02
RMM:  10    -0.857812002466E+02    0.32120E-05   -0.81882E-06 52132   0.424E-03    0.597E-03
RMM:  11    -0.857811994578E+02    0.78879E-06   -0.82591E-06 53915   0.345E-03    0.155E-03
RMM:  12    -0.857811996470E+02   -0.18920E-06   -0.10168E-06 40715   0.175E-03    0.211E-03
RMM:  13    -0.857811996583E+02   -0.11300E-07   -0.22477E-07 30751   0.114E-03
   4 F= -.85781200E+02 E0= -.85774981E+02  d E =-.349351E-02
       N       E                     dE             d eps       ncg     rms          rms(c)
DAV:   1    -0.857812837779E+02   -0.84131E-04   -0.33647E-01 52048   0.111E+00    0.520E-02
RMM:   2    -0.857815487642E+02   -0.26499E-03   -0.33936E-03 51962   0.165E-01    0.328E-02
RMM:   3    -0.857816386331E+02   -0.89869E-04   -0.60729E-04 62224   0.405E-02    0.498E-02
RMM:   4    -0.857815877496E+02    0.50883E-04   -0.45015E-05 55268   0.138E-02    0.307E-02
RMM:   5    -0.857815709678E+02    0.16782E-04   -0.19294E-05 52030   0.123E-02    0.226E-02
RMM:   6    -0.857815611666E+02    0.98013E-05   -0.48013E-05 51757   0.122E-02    0.163E-02
RMM:   7    -0.857815604880E+02    0.67863E-06   -0.37770E-05 52919   0.115E-02    0.118E-02
RMM:   8    -0.857815561509E+02    0.43370E-05   -0.43422E-06 51598   0.401E-03    0.827E-03
RMM:   9    -0.857815546582E+02    0.14928E-05   -0.17877E-06 48697   0.240E-03    0.516E-03
RMM:  10    -0.857815540502E+02    0.60794E-06   -0.17701E-06 42098   0.182E-03    0.238E-03
RMM:  11    -0.857815540140E+02    0.36242E-07   -0.13362E-06 42044   0.154E-03    0.619E-04
RMM:  12    -0.857815540120E+02    0.19427E-08   -0.17361E-07 30269   0.980E-04
   5 F= -.85781554E+02 E0= -.85775339E+02  d E =-.384786E-02
       N       E                     dE             d eps       ncg     rms          rms(c)
DAV:   1    -0.857819566630E+02   -0.40265E-03   -0.18886E-01 52352   0.826E-01    0.487E-02
RMM:   2    -0.857821203645E+02   -0.16370E-03   -0.20781E-03 51864   0.967E-02    0.458E-02
RMM:   3    -0.857821216914E+02   -0.13269E-05   -0.18856E-04 55654   0.260E-02    0.395E-02
RMM:   4    -0.857821347558E+02   -0.13064E-04   -0.44145E-05 52223   0.115E-02    0.362E-02
RMM:   5    -0.857821096651E+02    0.25091E-04   -0.35364E-05 51934   0.144E-02    0.220E-02
RMM:   6    -0.857820983788E+02    0.11286E-04   -0.27367E-05 51829   0.137E-02    0.179E-02
RMM:   7    -0.857820932057E+02    0.51731E-05   -0.12966E-05 51674   0.101E-02    0.406E-03
RMM:   8    -0.857820930134E+02    0.19238E-06   -0.12857E-06 51068   0.272E-03    0.250E-03
RMM:   9    -0.857820931073E+02   -0.93911E-07   -0.37171E-07 33506   0.190E-03
   6 F= -.85782093E+02 E0= -.85775880E+02  d E =-.539095E-03
       N       E                     dE             d eps       ncg     rms          rms(c)
DAV:   1    -0.857820977440E+02   -0.47307E-05   -0.16738E-03 53056   0.779E-02    0.494E-03
RMM:   2    -0.857820985727E+02   -0.82864E-06   -0.17378E-05 51823   0.905E-03    0.441E-03
RMM:   3    -0.857820986785E+02   -0.10585E-06   -0.15808E-06 50729   0.232E-03    0.453E-03
RMM:   4    -0.857820981667E+02    0.51189E-06   -0.52806E-07 35357   0.167E-03    0.372E-03
RMM:   5    -0.857820977475E+02    0.41915E-06   -0.50185E-07 32809   0.179E-03    0.185E-03
RMM:   6    -0.857820976047E+02    0.14284E-06   -0.20072E-07 31042   0.120E-03    0.133E-03
RMM:   7    -0.857820975753E+02    0.29322E-07   -0.87646E-08 28153   0.952E-04
   7 F= -.85782098E+02 E0= -.85775884E+02  d E =-.543563E-03
       N       E                     dE             d eps       ncg     rms          rms(c)
DAV:   1    -0.857828355571E+02   -0.73795E-03   -0.20440E-01 51744   0.888E-01    0.343E-02
RMM:   2    -0.857828852555E+02   -0.49698E-04   -0.68796E-04 51930   0.862E-02    0.329E-02
RMM:   3    -0.857828741605E+02    0.11095E-04   -0.67269E-05 52726   0.224E-02    0.203E-02
RMM:   4    -0.857828707012E+02    0.34593E-05   -0.22614E-05 51999   0.127E-02    0.147E-02
RMM:   5    -0.857828784878E+02   -0.77866E-05   -0.12606E-05 51956   0.946E-03    0.149E-02
RMM:   6    -0.857828682399E+02    0.10248E-04   -0.54819E-06 51679   0.492E-03    0.111E-02
RMM:   7    -0.857828663191E+02    0.19207E-05   -0.24963E-06 50846   0.326E-03    0.248E-03
RMM:   8    -0.857828660488E+02    0.27034E-06   -0.40379E-07 33981   0.182E-03    0.151E-03
RMM:   9    -0.857828660466E+02    0.21973E-08   -0.16204E-07 28747   0.140E-03
   8 F= -.85782866E+02 E0= -.85776666E+02  d E =-.768471E-03
       N       E                     dE             d eps       ncg     rms          rms(c)
DAV:   1    -0.857844890403E+02   -0.16230E-02   -0.18396E+00 51680   0.266E+00    0.104E-01
RMM:   2    -0.857849176223E+02   -0.42858E-03   -0.62953E-03 51922   0.261E-01    0.101E-01
RMM:   3    -0.857848078437E+02    0.10978E-03   -0.62288E-04 52707   0.686E-02    0.610E-02
RMM:   4    -0.857847646501E+02    0.43194E-04   -0.18206E-04 52028   0.338E-02    0.523E-02
RMM:   5    -0.857848117822E+02   -0.47132E-04   -0.12485E-04 51798   0.237E-02    0.573E-02
RMM:   6    -0.857847283808E+02    0.83401E-04   -0.60819E-05 52010   0.214E-02    0.224E-02
RMM:   7    -0.857847099000E+02    0.18481E-04   -0.20575E-05 51685   0.107E-02    0.831E-03
RMM:   8    -0.857847066021E+02    0.32979E-05   -0.38723E-06 51680   0.554E-03    0.454E-03
RMM:   9    -0.857847063939E+02    0.20827E-06   -0.13355E-06 51128   0.361E-03    0.187E-03
RMM:  10    -0.857847066977E+02   -0.30389E-06   -0.17604E-07 30901   0.121E-03    0.102E-03
RMM:  11    -0.857847067446E+02   -0.46872E-07   -0.72842E-08 29427   0.818E-04
   9 F= -.85784707E+02 E0= -.85778549E+02  d E =-.260917E-02
       N       E                     dE             d eps       ncg     rms          rms(c)
DAV:   1    -0.857854884614E+02   -0.78176E-03   -0.73609E+00 51680   0.533E+00    0.209E-01
RMM:   2    -0.857872242276E+02   -0.17358E-02   -0.25958E-02 51910   0.530E-01    0.207E-01
RMM:   3    -0.857867452779E+02    0.47895E-03   -0.25870E-03 52701   0.141E-01    0.122E-01
RMM:   4    -0.857868378691E+02   -0.92591E-04   -0.69912E-04 52032   0.635E-02    0.135E-01
RMM:   5    -0.857866405862E+02    0.19728E-03   -0.47189E-04 51796   0.482E-02    0.997E-02
RMM:   6    -0.857863527567E+02    0.28783E-03   -0.32407E-04 51959   0.507E-02    0.460E-02
RMM:   7    -0.857863028782E+02    0.49878E-04   -0.89207E-05 51691   0.220E-02    0.178E-02
RMM:   8    -0.857862886788E+02    0.14199E-04   -0.16527E-05 51923   0.115E-02    0.927E-03
RMM:   9    -0.857862875232E+02    0.11556E-05   -0.55094E-06 51819   0.734E-03    0.371E-03
RMM:  10    -0.857862881644E+02   -0.64121E-06   -0.72156E-07 45328   0.234E-03    0.201E-03
RMM:  11    -0.857862883236E+02   -0.15918E-06   -0.25369E-07 31300   0.146E-03    0.146E-03
RMM:  12    -0.857862884104E+02   -0.86824E-07   -0.13835E-07 30006   0.122E-03
  10 F= -.85786288E+02 E0= -.85780225E+02  d E =-.419084E-02
       N       E                     dE             d eps       ncg     rms          rms(c)
DAV:   1    -0.857872049944E+02   -0.91667E-03   -0.44917E-01 52000   0.132E+00    0.580E-02
RMM:   2    -0.857873134215E+02   -0.10843E-03   -0.18002E-03 51873   0.130E-01    0.556E-02
RMM:   3    -0.857873303719E+02   -0.16950E-04   -0.22419E-04 53365   0.370E-02    0.459E-02
RMM:   4    -0.857873261461E+02    0.42258E-05   -0.64345E-05 51944   0.174E-02    0.441E-02
RMM:   5    -0.857872602797E+02    0.65866E-04   -0.50280E-05 51959   0.180E-02    0.142E-02
RMM:   6    -0.857872610105E+02   -0.73083E-06   -0.21367E-05 51897   0.128E-02    0.147E-02
RMM:   7    -0.857872593280E+02    0.16826E-05   -0.88126E-06 51680   0.731E-03    0.580E-03
RMM:   8    -0.857872576278E+02    0.17002E-05   -0.17590E-06 51067   0.290E-03    0.289E-03
RMM:   9    -0.857872577607E+02   -0.13290E-06   -0.63653E-07 45306   0.233E-03    0.135E-03
RMM:  10    -0.857872579281E+02   -0.16743E-06   -0.98980E-08 29150   0.106E-03    0.788E-04
RMM:  11    -0.857872579650E+02   -0.36875E-07   -0.36252E-08 29238   0.477E-04
  11 F= -.85787258E+02 E0= -.85781224E+02  d E =-.969555E-03
       N       E                     dE             d eps       ncg     rms          rms(c)
DAV:   1    -0.857878093165E+02   -0.55139E-03   -0.43141E-01 51856   0.129E+00    0.569E-02
RMM:   2    -0.857879128201E+02   -0.10350E-03   -0.17306E-03 51875   0.127E-01    0.542E-02
RMM:   3    -0.857879262009E+02   -0.13381E-04   -0.21594E-04 53339   0.365E-02    0.443E-02
RMM:   4    -0.857879302592E+02   -0.40583E-05   -0.61217E-05 51943   0.168E-02    0.442E-02
RMM:   5    -0.857878634339E+02    0.66825E-04   -0.48580E-05 51958   0.176E-02    0.139E-02
RMM:   6    -0.857878641660E+02   -0.73206E-06   -0.20629E-05 51881   0.126E-02    0.144E-02
RMM:   7    -0.857878625404E+02    0.16256E-05   -0.84631E-06 51681   0.715E-03    0.568E-03
RMM:   8    -0.857878609195E+02    0.16209E-05   -0.17005E-06 50984   0.286E-03    0.283E-03
RMM:   9    -0.857878610454E+02   -0.12594E-06   -0.61422E-07 44296   0.229E-03    0.133E-03
RMM:  10    -0.857878611985E+02   -0.15312E-06   -0.95948E-08 28773   0.106E-03    0.763E-04
RMM:  11    -0.857878612173E+02   -0.18772E-07   -0.32740E-08 28873   0.463E-04
  12 F= -.85787861E+02 E0= -.85781858E+02  d E =-.157281E-02
       N       E                     dE             d eps       ncg     rms          rms(c)
DAV:   1    -0.857878259029E+02    0.35296E-04   -0.17259E+00 51680   0.258E+00    0.114E-01
RMM:   2    -0.857882315957E+02   -0.40569E-03   -0.70044E-03 51870   0.256E-01    0.110E-01
RMM:   3    -0.857882778781E+02   -0.46282E-04   -0.87296E-04 53353   0.734E-02    0.886E-02
RMM:   4    -0.857882862492E+02   -0.83710E-05   -0.24393E-04 51981   0.334E-02    0.882E-02
RMM:   5    -0.857880161913E+02    0.27006E-03   -0.19607E-04 51956   0.354E-02    0.284E-02
RMM:   6    -0.857880148775E+02    0.13138E-05   -0.84125E-05 51945   0.255E-02    0.287E-02
RMM:   7    -0.857880086474E+02    0.62301E-05   -0.34147E-05 51697   0.144E-02    0.118E-02
RMM:   8    -0.857880010667E+02    0.75807E-05   -0.69959E-06 51729   0.571E-03    0.562E-03
RMM:   9    -0.857880011310E+02   -0.64305E-07   -0.25454E-06 51844   0.463E-03    0.273E-03
RMM:  10    -0.857880013842E+02   -0.25323E-06   -0.39081E-07 34765   0.201E-03    0.154E-03
RMM:  11    -0.857880014033E+02   -0.19092E-07   -0.11612E-07 30408   0.836E-04
  13 F= -.85788001E+02 E0= -.85782060E+02  d E =-.171299E-02
       N       E                     dE             d eps       ncg     rms          rms(c)
DAV:   1    -0.857881056600E+02   -0.10428E-03   -0.36048E-01 51760   0.118E+00    0.521E-02
RMM:   2    -0.857881725601E+02   -0.66900E-04   -0.14136E-03 51884   0.115E-01    0.471E-02
RMM:   3    -0.857881705575E+02    0.20026E-05   -0.18228E-04 53275   0.342E-02    0.371E-02
RMM:   4    -0.857882063175E+02   -0.35760E-04   -0.51790E-05 51931   0.143E-02    0.460E-02
RMM:   5    -0.857881238808E+02    0.82437E-04   -0.39974E-05 51978   0.155E-02    0.127E-02
RMM:   6    -0.857881213285E+02    0.25523E-05   -0.16783E-05 51774   0.112E-02    0.134E-02
RMM:   7    -0.857881190437E+02    0.22848E-05   -0.70467E-06 51682   0.645E-03    0.485E-03
RMM:   8    -0.857881174746E+02    0.15691E-05   -0.14467E-06 50877   0.276E-03    0.266E-03
RMM:   9    -0.857881171664E+02    0.30822E-06   -0.49427E-07 37089   0.207E-03    0.110E-03
RMM:  10    -0.857881170163E+02    0.15010E-06   -0.78297E-08 28693   0.952E-04    0.674E-04
RMM:  11    -0.857881170075E+02    0.87603E-08   -0.28577E-08 28286   0.429E-04
  14 F= -.85788117E+02 E0= -.85782146E+02  d E =-.182860E-02
       N       E                     dE             d eps       ncg     rms          rms(c)
DAV:   1    -0.857888634415E+02   -0.74643E-03   -0.50607E-01 51680   0.140E+00    0.593E-02
RMM:   2    -0.857890644320E+02   -0.20099E-03   -0.26355E-03 51903   0.148E-01    0.605E-02
RMM:   3    -0.857890809200E+02   -0.16488E-04   -0.30902E-04 54177   0.372E-02    0.500E-02
RMM:   4    -0.857890626332E+02    0.18287E-04   -0.66387E-05 52319   0.179E-02    0.409E-02
RMM:   5    -0.857890072576E+02    0.55376E-04   -0.47643E-05 51893   0.176E-02    0.190E-02
RMM:   6    -0.857890081385E+02   -0.88089E-06   -0.38691E-05 51891   0.158E-02    0.212E-02
RMM:   7    -0.857890023454E+02    0.57931E-05   -0.17403E-05 51708   0.103E-02    0.470E-03
RMM:   8    -0.857890011228E+02    0.12226E-05   -0.18911E-06 51980   0.323E-03    0.233E-03
RMM:   9    -0.857890012305E+02   -0.10773E-06   -0.47452E-07 40538   0.215E-03    0.164E-03
RMM:  10    -0.857890013232E+02   -0.92768E-07   -0.18071E-07 29534   0.132E-03
  15 F= -.85789001E+02 E0= -.85783060E+02  d E =-.884316E-03
       N       E                     dE             d eps       ncg     rms          rms(c)
DAV:   1    -0.857892924002E+02   -0.29117E-03   -0.27266E-01 51712   0.103E+00    0.435E-02
RMM:   2    -0.857894039295E+02   -0.11153E-03   -0.14222E-03 51901   0.108E-01    0.450E-02
RMM:   3    -0.857894134308E+02   -0.95013E-05   -0.16629E-04 54279   0.271E-02    0.371E-02
RMM:   4    -0.857894002702E+02    0.13161E-04   -0.35876E-05 52285   0.134E-02    0.295E-02
RMM:   5    -0.857893730660E+02    0.27204E-04   -0.25623E-05 51900   0.129E-02    0.139E-02
RMM:   6    -0.857893741798E+02   -0.11138E-05   -0.21035E-05 51854   0.116E-02    0.157E-02
RMM:   7    -0.857893711005E+02    0.30792E-05   -0.94013E-06 51679   0.758E-03    0.339E-03
RMM:   8    -0.857893705037E+02    0.59685E-06   -0.99995E-07 49367   0.236E-03    0.173E-03
RMM:   9    -0.857893705937E+02   -0.89982E-07   -0.25227E-07 31031   0.161E-03
  16 F= -.85789371E+02 E0= -.85783452E+02  d E =-.125359E-02
       N       E                     dE             d eps       ncg     rms          rms(c)
DAV:   1    -0.857890900091E+02    0.28049E-03   -0.10906E+00 51680   0.205E+00    0.872E-02
RMM:   2    -0.857895285444E+02   -0.43854E-03   -0.57178E-03 51909   0.218E-01    0.906E-02
RMM:   3    -0.857895643309E+02   -0.35787E-04   -0.66760E-04 54211   0.545E-02    0.743E-02
RMM:   4    -0.857895059346E+02    0.58396E-04   -0.14378E-04 52341   0.268E-02    0.588E-02
RMM:   5    -0.857893942644E+02    0.11167E-03   -0.10263E-04 51895   0.260E-02    0.281E-02
RMM:   6    -0.857893947184E+02   -0.45403E-06   -0.84079E-05 51910   0.232E-02    0.311E-02
RMM:   7    -0.857893820580E+02    0.12660E-04   -0.37758E-05 51706   0.152E-02    0.708E-03
RMM:   8    -0.857893790858E+02    0.29722E-05   -0.40394E-06 52221   0.474E-03    0.341E-03
RMM:   9    -0.857893792068E+02   -0.12096E-06   -0.10602E-06 51067   0.315E-03    0.242E-03
RMM:  10    -0.857893793032E+02   -0.96428E-07   -0.36485E-07 32881   0.176E-03
  17 F= -.85789379E+02 E0= -.85783506E+02  d E =-.126230E-02
       N       E                     dE             d eps       ncg     rms          rms(c)
DAV:   1    -0.857894265124E+02   -0.47306E-04   -0.34416E-01 51680   0.115E+00    0.488E-02
RMM:   2    -0.857895483989E+02   -0.12189E-03   -0.17653E-03 51913   0.121E-01    0.486E-02
RMM:   3    -0.857895573443E+02   -0.89454E-05   -0.20779E-04 54167   0.306E-02    0.411E-02
RMM:   4    -0.857895471831E+02    0.10161E-04   -0.45500E-05 52303   0.147E-02    0.345E-02
RMM:   5    -0.857895027127E+02    0.44470E-04   -0.32371E-05 51901   0.144E-02    0.153E-02
RMM:   6    -0.857895000578E+02    0.26549E-05   -0.25693E-05 51857   0.128E-02    0.176E-02
RMM:   7    -0.857894945250E+02    0.55328E-05   -0.11546E-05 51686   0.849E-03    0.346E-03
RMM:   8    -0.857894936462E+02    0.87880E-06   -0.12652E-06 51402   0.264E-03    0.196E-03
RMM:   9    -0.857894934462E+02    0.19999E-06   -0.30583E-07 31845   0.177E-03    0.127E-03
RMM:  10    -0.857894932987E+02    0.14751E-06   -0.12289E-07 28752   0.113E-03    0.560E-04
RMM:  11    -0.857894933199E+02   -0.21239E-07   -0.52962E-08 28373   0.544E-04
  18 F= -.85789493E+02 E0= -.85783594E+02  d E =-.137631E-02
       N       E                     dE             d eps       ncg     rms          rms(c)
DAV:   1    -0.857900061366E+02   -0.51284E-03   -0.27635E-01 51728   0.103E+00    0.473E-02
RMM:   2    -0.857901031913E+02   -0.97055E-04   -0.14242E-03 51865   0.113E-01    0.429E-02
RMM:   3    -0.857901161250E+02   -0.12934E-04   -0.20539E-04 54226   0.300E-02    0.389E-02
RMM:   4    -0.857901293136E+02   -0.13189E-04   -0.45744E-05 52179   0.130E-02    0.356E-02
RMM:   5    -0.857900789985E+02    0.50315E-04   -0.29698E-05 51957   0.136E-02    0.145E-02
RMM:   6    -0.857900782485E+02    0.74995E-06   -0.18982E-05 51761   0.117E-02    0.150E-02
RMM:   7    -0.857900751148E+02    0.31337E-05   -0.95270E-06 51643   0.770E-03    0.386E-03
RMM:   8    -0.857900746300E+02    0.48479E-06   -0.16676E-06 52001   0.287E-03    0.186E-03
RMM:   9    -0.857900746968E+02   -0.66750E-07   -0.36485E-07 33690   0.189E-03
  19 F= -.85790075E+02 E0= -.85784197E+02  d E =-.581377E-03
       N       E                     dE             d eps       ncg     rms          rms(c)
DAV:   1    -0.857902422131E+02   -0.16758E-03   -0.11215E-01 52024   0.659E-01    0.300E-02
RMM:   2    -0.857902838715E+02   -0.41658E-04   -0.58357E-04 51865   0.722E-02    0.279E-02
RMM:   3    -0.857902912787E+02   -0.74072E-05   -0.83609E-05 54341   0.189E-02    0.256E-02
RMM:   4    -0.857902916048E+02   -0.32616E-06   -0.18305E-05 52149   0.864E-03    0.215E-02
RMM:   5    -0.857902741136E+02    0.17491E-04   -0.12245E-05 51988   0.886E-03    0.918E-03
RMM:   6    -0.857902741893E+02   -0.75655E-07   -0.78043E-06 51706   0.743E-03    0.971E-03
RMM:   7    -0.857902729789E+02    0.12104E-05   -0.39346E-06 51590   0.494E-03    0.243E-03
RMM:   8    -0.857902728274E+02    0.15150E-06   -0.63203E-07 34665   0.181E-03    0.123E-03
RMM:   9    -0.857902728915E+02   -0.64152E-07   -0.19156E-07 29140   0.150E-03
  20 F= -.85790273E+02 E0= -.85784409E+02  d E =-.779572E-03
       N       E                     dE             d eps       ncg     rms          rms(c)
DAV:   1    -0.857901697560E+02    0.10307E-03   -0.44865E-01 51680   0.132E+00    0.600E-02
RMM:   2    -0.857903297991E+02   -0.16004E-03   -0.23260E-03 51865   0.144E-01    0.551E-02
RMM:   3    -0.857903532878E+02   -0.23489E-04   -0.33322E-04 54279   0.380E-02    0.501E-02
RMM:   4    -0.857903656245E+02   -0.12337E-04   -0.73104E-05 52245   0.168E-02    0.443E-02
RMM:   5    -0.857902886946E+02    0.76930E-04   -0.48590E-05 51941   0.175E-02    0.185E-02
RMM:   6    -0.857902873929E+02    0.13016E-05   -0.31119E-05 51805   0.149E-02    0.192E-02
RMM:   7    -0.857902822126E+02    0.51804E-05   -0.15668E-05 51678   0.988E-03    0.495E-03
RMM:   8    -0.857902813299E+02    0.88265E-06   -0.26746E-06 52321   0.364E-03    0.236E-03
RMM:   9    -0.857902814124E+02   -0.82444E-07   -0.62356E-07 47849   0.240E-03
  21 F= -.85790281E+02 E0= -.85784447E+02  d E =-.788092E-03
       N       E                     dE             d eps       ncg     rms          rms(c)
DAV:   1    -0.857903144591E+02   -0.33129E-04   -0.13845E-01 51744   0.732E-01    0.332E-02
RMM:   2    -0.857903583623E+02   -0.43903E-04   -0.70638E-04 51871   0.794E-02    0.292E-02
RMM:   3    -0.857903592149E+02   -0.85268E-06   -0.10157E-04 54257   0.213E-02    0.252E-02
RMM:   4    -0.857903696507E+02   -0.10436E-04   -0.23014E-05 51941   0.860E-03    0.260E-02
RMM:   5    -0.857903443425E+02    0.25308E-04   -0.12990E-05 51934   0.869E-03    0.106E-02
RMM:   6    -0.857903422436E+02    0.20988E-05   -0.92340E-06 51698   0.819E-03    0.105E-02
RMM:   7    -0.857903400851E+02    0.21586E-05   -0.46544E-06 51608   0.543E-03    0.260E-03
RMM:   8    -0.857903396531E+02    0.43195E-06   -0.81789E-07 39278   0.201E-03    0.139E-03
RMM:   9    -0.857903395397E+02    0.11346E-06   -0.21873E-07 29515   0.158E-03    0.885E-04
RMM:  10    -0.857903394989E+02    0.40782E-07   -0.59068E-08 27887   0.830E-04
  22 F= -.85790339E+02 E0= -.85784488E+02  d E =-.846179E-03
       N       E                     dE             d eps       ncg     rms          rms(c)
DAV:   1    -0.857904155945E+02   -0.76055E-04   -0.30716E-02 52528   0.339E-01    0.192E-02
RMM:   2    -0.857904357518E+02   -0.20157E-04   -0.27033E-04 51806   0.382E-02    0.178E-02
RMM:   3    -0.857904348751E+02    0.87672E-06   -0.18261E-05 52132   0.879E-03    0.149E-02
RMM:   4    -0.857904380387E+02   -0.31636E-05   -0.91130E-06 51730   0.451E-03    0.139E-02
RMM:   5    -0.857904348590E+02    0.31796E-05   -0.61307E-06 51692   0.586E-03    0.925E-03
RMM:   6    -0.857904311877E+02    0.36713E-05   -0.29308E-06 51678   0.513E-03    0.455E-03
RMM:   7    -0.857904308582E+02    0.32948E-06   -0.90618E-07 50317   0.289E-03    0.156E-03
RMM:   8    -0.857904308007E+02    0.57538E-07   -0.99639E-08 29700   0.882E-04
  23 F= -.85790431E+02 E0= -.85784584E+02  d E =-.913018E-04
       N       E                     dE             d eps       ncg     rms          rms(c)
DAV:   1    -0.857904310228E+02   -0.16460E-06   -0.11672E-04 53152   0.212E-02    0.119E-03
RMM:   2    -0.857904310872E+02   -0.64363E-07   -0.11090E-06 40496   0.278E-03    0.123E-03
RMM:   3    -0.857904310802E+02    0.70213E-08   -0.88810E-08 28477   0.779E-04
  24 F= -.85790431E+02 E0= -.85784585E+02  d E =-.915813E-04
       N       E                     dE             d eps       ncg     rms          rms(c)
DAV:   1    -0.857905202834E+02   -0.89196E-04   -0.23034E-02 51880   0.300E-01    0.122E-02
RMM:   2    -0.857905287530E+02   -0.84696E-05   -0.10643E-04 51998   0.360E-02    0.927E-03
RMM:   3    -0.857905315728E+02   -0.28197E-05   -0.74760E-06 52535   0.672E-03    0.104E-02
RMM:   4    -0.857905294887E+02    0.20841E-05   -0.36593E-06 51764   0.496E-03    0.108E-02
RMM:   5    -0.857905270659E+02    0.24229E-05   -0.24201E-06 51676   0.360E-03    0.325E-03
RMM:   6    -0.857905269668E+02    0.99084E-07   -0.81752E-07 49303   0.264E-03
  25 F= -.85790527E+02 E0= -.85784685E+02  d E =-.958866E-04
       N       E                     dE             d eps       ncg     rms          rms(c)
DAV:   1    -0.857905966422E+02   -0.69576E-04   -0.18996E-01 51680   0.862E-01    0.358E-02
RMM:   2    -0.857906655397E+02   -0.68897E-04   -0.90618E-04 52000   0.106E-01    0.301E-02
RMM:   3    -0.857906673400E+02   -0.18003E-05   -0.67376E-05 52011   0.208E-02    0.287E-02
RMM:   4    -0.857906897524E+02   -0.22412E-04   -0.25905E-05 51926   0.101E-02    0.295E-02
RMM:   5    -0.857906513237E+02    0.38429E-04   -0.19014E-05 51917   0.109E-02    0.108E-02
RMM:   6    -0.857906486681E+02    0.26556E-05   -0.79257E-06 51800   0.845E-03    0.603E-03
RMM:   7    -0.857906480220E+02    0.64612E-06   -0.14789E-06 51305   0.351E-03    0.214E-03
RMM:   8    -0.857906478338E+02    0.18822E-06   -0.23871E-07 30975   0.142E-03    0.114E-03
RMM:   9    -0.857906478428E+02   -0.90004E-08   -0.13590E-07 29173   0.117E-03
  26 F= -.85790648E+02 E0= -.85784816E+02  d E =-.216763E-03
       N       E                     dE             d eps       ncg     rms          rms(c)
DAV:   1    -0.857906690357E+02   -0.21202E-04   -0.27991E-03 52352   0.971E-02    0.732E-03
RMM:   2    -0.857906738275E+02   -0.47918E-05   -0.34102E-05 52141   0.143E-02    0.803E-03
RMM:   3    -0.857906722888E+02    0.15387E-05   -0.46433E-06 57222   0.367E-03    0.598E-03
RMM:   4    -0.857906717828E+02    0.50605E-06   -0.98532E-07 42475   0.211E-03    0.427E-03
RMM:   5    -0.857906715921E+02    0.19064E-06   -0.79431E-07 41744   0.214E-03    0.285E-03
RMM:   6    -0.857906715334E+02    0.58724E-07   -0.44605E-07 32353   0.160E-03
  27 F= -.85790672E+02 E0= -.85784842E+02  d E =-.236907E-04
       N       E                     dE             d eps       ncg     rms          rms(c)
DAV:   1    -0.857906866189E+02   -0.15027E-04   -0.25180E-02 51680   0.292E-01    0.219E-02
RMM:   2    -0.857907342354E+02   -0.47617E-04   -0.31029E-04 52134   0.436E-02    0.257E-02
RMM:   3    -0.857907157559E+02    0.18480E-04   -0.42596E-05 57390   0.112E-02    0.176E-02
RMM:   4    -0.857907119017E+02    0.38543E-05   -0.90133E-06 51785   0.626E-03    0.129E-02
RMM:   5    -0.857907101932E+02    0.17085E-05   -0.68539E-06 51674   0.577E-03    0.854E-03
RMM:   6    -0.857907094549E+02    0.73831E-06   -0.42152E-06 51685   0.470E-03    0.456E-03
RMM:   7    -0.857907090810E+02    0.37381E-06   -0.14672E-06 51489   0.360E-03    0.108E-03
RMM:   8    -0.857907090575E+02    0.23509E-07   -0.69626E-08 28678   0.647E-04
  28 F= -.85790709E+02 E0= -.85784887E+02  d E =-.612148E-04
       N       E                     dE             d eps       ncg     rms          rms(c)
DAV:   1    -0.857907182048E+02   -0.91238E-05   -0.27915E-04 53040   0.299E-02    0.262E-03
RMM:   2    -0.857907186727E+02   -0.46795E-06   -0.39821E-06 51671   0.460E-03    0.245E-03
RMM:   3    -0.857907186140E+02    0.58710E-07   -0.45215E-07 33032   0.124E-03
  29 F= -.85790719E+02 E0= -.85784896E+02  d E =-.955650E-05
       N       E                     dE             d eps       ncg     rms          rms(c)
DAV:   1    -0.857907394251E+02   -0.20752E-04   -0.25139E-03 51840   0.891E-02    0.863E-03
RMM:   2    -0.857907444137E+02   -0.49886E-05   -0.34068E-05 52146   0.133E-02    0.887E-03
RMM:   3    -0.857907427929E+02    0.16208E-05   -0.46222E-06 54589   0.412E-03    0.762E-03
RMM:   4    -0.857907421849E+02    0.60810E-06   -0.18032E-06 48745   0.261E-03    0.675E-03
RMM:   5    -0.857907414887E+02    0.69616E-06   -0.11477E-06 40541   0.205E-03    0.225E-03
RMM:   6    -0.857907415343E+02   -0.45649E-07   -0.69028E-07 45688   0.232E-03
  30 F= -.85790742E+02 E0= -.85784922E+02  d E =-.324768E-04
       N       E                     dE             d eps       ncg     rms          rms(c)
DAV:   1    -0.857907550904E+02   -0.13602E-04   -0.10053E-02 51680   0.179E-01    0.155E-02
RMM:   2    -0.857907775221E+02   -0.22432E-04   -0.13764E-04 52145   0.270E-02    0.183E-02
RMM:   3    -0.857907677491E+02    0.97731E-05   -0.18038E-05 56178   0.745E-03    0.125E-02
RMM:   4    -0.857907661748E+02    0.15743E-05   -0.45970E-06 51471   0.408E-03    0.953E-03
RMM:   5    -0.857907652104E+02    0.96436E-06   -0.36930E-06 51594   0.402E-03    0.583E-03
RMM:   6    -0.857907648334E+02    0.37703E-06   -0.16343E-06 51220   0.292E-03    0.257E-03
RMM:   7    -0.857907647090E+02    0.12440E-06   -0.46707E-07 38851   0.206E-03    0.751E-04
RMM:   8    -0.857907647046E+02    0.44165E-08   -0.45396E-08 28100   0.615E-04
  31 F= -.85790765E+02 E0= -.85784948E+02  d E =-.556470E-04
       N       E                     dE             d eps       ncg     rms          rms(c)
DAV:   1    -0.857907635555E+02    0.11535E-05   -0.67519E-04 52552   0.463E-02    0.398E-03
RMM:   2    -0.857907648669E+02   -0.13115E-05   -0.93711E-06 51958   0.699E-03    0.425E-03
RMM:   3    -0.857907644516E+02    0.41530E-06   -0.11450E-06 44024   0.189E-03    0.329E-03
RMM:   4    -0.857907643280E+02    0.12359E-06   -0.32224E-07 32089   0.125E-03    0.254E-03
RMM:   5    -0.857907642484E+02    0.79584E-07   -0.26619E-07 31898   0.132E-03
  32 F= -.85790764E+02 E0= -.85784948E+02  d E =-.551909E-04
       N       E                     dE             d eps       ncg     rms          rms(c)
DAV:   1    -0.857907772397E+02   -0.12912E-04   -0.18242E-03 51696   0.733E-02    0.752E-03
RMM:   2    -0.857907821521E+02   -0.49124E-05   -0.23548E-05 52146   0.108E-02    0.914E-03
RMM:   3    -0.857907793068E+02    0.28453E-05   -0.32869E-06 53395   0.333E-03    0.564E-03
RMM:   4    -0.857907791412E+02    0.16561E-06   -0.10633E-06 42031   0.206E-03    0.474E-03
RMM:   5    -0.857907787865E+02    0.35475E-06   -0.86586E-07 46458   0.231E-03    0.214E-03
RMM:   6    -0.857907787322E+02    0.54250E-07   -0.16118E-07 30517   0.906E-04
  33 F= -.85790779E+02 E0= -.85784963E+02  d E =-.144838E-04
       N       E                     dE             d eps       ncg     rms          rms(c)
DAV:   1    -0.857907934868E+02   -0.14700E-04   -0.16454E-02 51680   0.218E-01    0.224E-02
RMM:   2    -0.857908398316E+02   -0.46345E-04   -0.21385E-04 52177   0.320E-02    0.284E-02
RMM:   3    -0.857908121627E+02    0.27669E-04   -0.29750E-05 54008   0.102E-02    0.167E-02
RMM:   4    -0.857908104450E+02    0.17177E-05   -0.10300E-05 51670   0.662E-03    0.135E-02
RMM:   5    -0.857908080315E+02    0.24135E-05   -0.75516E-06 51680   0.612E-03    0.690E-03
RMM:   6    -0.857908075539E+02    0.47755E-06   -0.25597E-06 51487   0.413E-03    0.369E-03
RMM:   7    -0.857908072811E+02    0.27285E-06   -0.82667E-07 47217   0.283E-03    0.742E-04
RMM:   8    -0.857908072875E+02   -0.63956E-08   -0.57732E-08 28334   0.656E-04
  34 F= -.85790807E+02 E0= -.85784995E+02  d E =-.430391E-04
       N       E                     dE             d eps       ncg     rms          rms(c)
DAV:   1    -0.857907892562E+02    0.18025E-04   -0.65836E-02 51680   0.437E-01    0.447E-02
RMM:   2    -0.857909789438E+02   -0.18969E-03   -0.85809E-04 52180   0.642E-02    0.575E-02
RMM:   3    -0.857908640910E+02    0.11485E-03   -0.11950E-04 53972   0.204E-02    0.333E-02
RMM:   4    -0.857908573532E+02    0.67378E-05   -0.41655E-05 51764   0.133E-02    0.273E-02
RMM:   5    -0.857908475431E+02    0.98101E-05   -0.30436E-05 51700   0.122E-02    0.138E-02
RMM:   6    -0.857908456810E+02    0.18621E-05   -0.10421E-05 51962   0.838E-03    0.748E-03
RMM:   7    -0.857908445464E+02    0.11346E-05   -0.33632E-06 51790   0.570E-03    0.151E-03
RMM:   8    -0.857908445351E+02    0.11336E-07   -0.23889E-07 30989   0.129E-03
  35 F= -.85790845E+02 E0= -.85785038E+02  d E =-.802866E-04
       N       E                     dE             d eps       ncg     rms          rms(c)
DAV:   1    -0.857908902400E+02   -0.45694E-04   -0.80422E-03 51696   0.145E-01    0.158E-02
RMM:   2    -0.857909059082E+02   -0.15668E-04   -0.11373E-04 52103   0.216E-02    0.166E-02
RMM:   3    -0.857909004058E+02    0.55025E-05   -0.79348E-06 52099   0.563E-03    0.124E-02
RMM:   4    -0.857908985224E+02    0.18834E-05   -0.85582E-06 51633   0.579E-03    0.784E-03
RMM:   5    -0.857908978956E+02    0.62679E-06   -0.43373E-06 51621   0.536E-03    0.436E-03
RMM:   6    -0.857908975508E+02    0.34485E-06   -0.61076E-07 36196   0.191E-03    0.205E-03
RMM:   7    -0.857908974337E+02    0.11707E-06   -0.20088E-07 30050   0.152E-03    0.662E-04
RMM:   8    -0.857908974392E+02   -0.54715E-08   -0.64656E-08 28580   0.651E-04
  36 F= -.85790897E+02 E0= -.85785089E+02  d E =-.529041E-04
       N       E                     dE             d eps       ncg     rms          rms(c)
DAV:   1    -0.857909069111E+02   -0.94775E-05   -0.11904E-02 51680   0.176E-01    0.192E-02
RMM:   2    -0.857909319332E+02   -0.25022E-04   -0.16763E-04 52105   0.260E-02    0.215E-02
RMM:   3    -0.857909211498E+02    0.10783E-04   -0.12067E-05 52193   0.706E-03    0.149E-02
RMM:   4    -0.857909184262E+02    0.27237E-05   -0.12912E-05 51696   0.685E-03    0.924E-03
RMM:   5    -0.857909175606E+02    0.86558E-06   -0.62138E-06 51671   0.639E-03    0.546E-03
RMM:   6    -0.857909169886E+02    0.57206E-06   -0.89040E-07 43790   0.228E-03    0.233E-03
RMM:   7    -0.857909168352E+02    0.15338E-06   -0.26420E-07 31817   0.166E-03    0.800E-04
RMM:   8    -0.857909168375E+02   -0.23138E-08   -0.94897E-08 28658   0.772E-04
  37 F= -.85790917E+02 E0= -.85785106E+02  d E =-.723024E-04
       N       E                     dE             d eps       ncg     rms          rms(c)
DAV:   1    -0.857909391928E+02   -0.22358E-04   -0.15228E-03 52384   0.675E-02    0.671E-03
RMM:   2    -0.857909422340E+02   -0.30412E-05   -0.17837E-05 52127   0.101E-02    0.757E-03
RMM:   3    -0.857909408863E+02    0.13477E-05   -0.14910E-06 50226   0.257E-03    0.512E-03
RMM:   4    -0.857909405883E+02    0.29797E-06   -0.12694E-06 47837   0.256E-03    0.314E-03
RMM:   5    -0.857909404747E+02    0.11363E-06   -0.70193E-07 43835   0.237E-03    0.161E-03
RMM:   6    -0.857909404392E+02    0.35463E-07   -0.93207E-08 30027   0.751E-04
  38 F= -.85790940E+02 E0= -.85785129E+02  d E =-.236017E-04
       N       E                     dE             d eps       ncg     rms          rms(c)
DAV:   1    -0.857909880865E+02   -0.47612E-04   -0.13692E-02 51680   0.202E-01    0.200E-02
RMM:   2    -0.857910167074E+02   -0.28621E-04   -0.15865E-04 52178   0.299E-02    0.233E-02
RMM:   3    -0.857910026894E+02    0.14018E-04   -0.13585E-05 52237   0.776E-03    0.152E-02
RMM:   4    -0.857909999853E+02    0.27041E-05   -0.11027E-05 51663   0.754E-03    0.942E-03
RMM:   5    -0.857909989271E+02    0.10582E-05   -0.63323E-06 51660   0.687E-03    0.501E-03
RMM:   6    -0.857909985583E+02    0.36884E-06   -0.89673E-07 43154   0.225E-03    0.262E-03
RMM:   7    -0.857909983704E+02    0.18789E-06   -0.26671E-07 31713   0.169E-03    0.712E-04
RMM:   8    -0.857909983646E+02    0.58571E-08   -0.72171E-08 28480   0.716E-04
  39 F= -.85790998E+02 E0= -.85785184E+02  d E =-.815271E-04
       N       E                     dE             d eps       ncg     rms          rms(c)
DAV:   1    -0.857910235610E+02   -0.25191E-04   -0.54776E-02 51680   0.404E-01    0.401E-02
RMM:   2    -0.857911368027E+02   -0.11324E-03   -0.63489E-04 52174   0.598E-02    0.466E-02
RMM:   3    -0.857910816349E+02    0.55168E-04   -0.54252E-05 52254   0.155E-02    0.303E-02
RMM:   4    -0.857910696347E+02    0.12000E-04   -0.44403E-05 51813   0.149E-02    0.185E-02
RMM:   5    -0.857910657801E+02    0.38545E-05   -0.24991E-05 51717   0.136E-02    0.102E-02
RMM:   6    -0.857910641351E+02    0.16450E-05   -0.36282E-06 51618   0.447E-03    0.512E-03
RMM:   7    -0.857910634300E+02    0.70508E-06   -0.10872E-06 50692   0.321E-03    0.140E-03
RMM:   8    -0.857910634013E+02    0.28711E-07   -0.25361E-07 30543   0.125E-03
  40 F= -.85791063E+02 E0= -.85785243E+02  d E =-.146564E-03
       N       E                     dE             d eps       ncg     rms          rms(c)
DAV:   1    -0.857908272312E+02    0.23620E-03   -0.21910E-01 51680   0.807E-01    0.802E-02
RMM:   2    -0.857912831463E+02   -0.45592E-03   -0.25418E-03 52176   0.120E-01    0.936E-02
RMM:   3    -0.857910564443E+02    0.22670E-03   -0.21778E-04 52263   0.310E-02    0.607E-02
RMM:   4    -0.857910103374E+02    0.46107E-04   -0.17777E-04 51930   0.296E-02    0.370E-02
RMM:   5    -0.857909951294E+02    0.15208E-04   -0.10073E-04 51791   0.272E-02    0.208E-02
RMM:   6    -0.857909882489E+02    0.68804E-05   -0.14780E-05 51692   0.906E-03    0.102E-02
RMM:   7    -0.857909854868E+02    0.27621E-05   -0.43709E-06 51612   0.644E-03    0.283E-03
RMM:   8    -0.857909853763E+02    0.11057E-06   -0.10950E-06 48333   0.250E-03    0.262E-03
RMM:   9    -0.857909852107E+02    0.16560E-06   -0.51240E-07 36069   0.200E-03    0.707E-04
RMM:  10    -0.857909852080E+02    0.26703E-08   -0.50593E-08 28525   0.706E-04
  41 F= -.85790985E+02 E0= -.85785152E+02  d E =-.683705E-04
       N       E                     dE             d eps       ncg     rms          rms(c)
DAV:   1    -0.857909878064E+02   -0.25958E-05   -0.11723E-01 51680   0.590E-01    0.587E-02
RMM:   2    -0.857912354494E+02   -0.24764E-03   -0.13521E-03 52176   0.878E-02    0.695E-02
RMM:   3    -0.857911047246E+02    0.13072E-03   -0.11624E-04 52231   0.229E-02    0.440E-02
RMM:   4    -0.857910827050E+02    0.22020E-04   -0.95265E-05 51898   0.220E-02    0.278E-02
RMM:   5    -0.857910737822E+02    0.89228E-05   -0.52803E-05 51774   0.198E-02    0.146E-02
RMM:   6    -0.857910703725E+02    0.34097E-05   -0.76154E-06 51694   0.648E-03    0.748E-03
RMM:   7    -0.857910689368E+02    0.14357E-05   -0.23595E-06 51260   0.475E-03    0.199E-03
RMM:   8    -0.857910688858E+02    0.50983E-07   -0.49387E-07 33116   0.176E-03
  42 F= -.85791069E+02 E0= -.85785242E+02  d E =-.152048E-03
       N       E                     dE             d eps       ncg     rms          rms(c)
DAV:   1    -0.857911165691E+02   -0.47632E-04   -0.19312E-03 52056   0.682E-02    0.119E-02
RMM:   2    -0.857911256490E+02   -0.90799E-05   -0.28682E-05 51952   0.104E-02    0.158E-02
RMM:   3    -0.857911177437E+02    0.79053E-05   -0.43228E-06 51899   0.446E-03    0.826E-03
RMM:   4    -0.857911164249E+02    0.13188E-05   -0.21001E-06 46634   0.253E-03    0.290E-03
RMM:   5    -0.857911163406E+02    0.84328E-07   -0.11207E-06 50802   0.309E-03    0.323E-03
RMM:   6    -0.857911161299E+02    0.21065E-06   -0.28906E-07 31880   0.147E-03    0.115E-03
RMM:   7    -0.857911161048E+02    0.25124E-07   -0.86647E-08 27928   0.925E-04
  43 F= -.85791116E+02 E0= -.85785293E+02  d E =-.472189E-04
       N       E                     dE             d eps       ncg     rms          rms(c)
DAV:   1    -0.857911363983E+02   -0.20268E-04   -0.32809E-03 52216   0.882E-02    0.155E-02
RMM:   2    -0.857911489540E+02   -0.12556E-04   -0.47936E-05 52049   0.135E-02    0.189E-02
RMM:   3    -0.857911391102E+02    0.98438E-05   -0.69207E-06 52243   0.557E-03    0.111E-02
RMM:   4    -0.857911367062E+02    0.24040E-05   -0.36172E-06 50439   0.334E-03    0.366E-03
RMM:   5    -0.857911366239E+02    0.82306E-07   -0.19666E-06 51072   0.404E-03    0.390E-03
RMM:   6    -0.857911363469E+02    0.27699E-06   -0.46426E-07 33582   0.179E-03    0.143E-03
RMM:   7    -0.857911363008E+02    0.46108E-07   -0.11966E-07 28766   0.102E-03
  44 F= -.85791136E+02 E0= -.85785314E+02  d E =-.674150E-04
       N       E                     dE             d eps       ncg     rms          rms(c)
DAV:   1    -0.857911884499E+02   -0.52103E-04   -0.59367E-03 51680   0.134E-01    0.132E-02
RMM:   2    -0.857912009347E+02   -0.12485E-04   -0.67723E-05 52107   0.196E-02    0.170E-02
RMM:   3    -0.857911926637E+02    0.82710E-05   -0.60944E-06 51907   0.527E-03    0.921E-03
RMM:   4    -0.857911908791E+02    0.17846E-05   -0.52749E-06 51538   0.389E-03    0.417E-03
RMM:   5    -0.857911906316E+02    0.24751E-06   -0.18640E-06 51350   0.404E-03    0.345E-03
RMM:   6    -0.857911904028E+02    0.22873E-06   -0.35104E-07 32149   0.159E-03    0.142E-03
RMM:   7    -0.857911903446E+02    0.58229E-07   -0.15607E-07 29454   0.116E-03
  45 F= -.85791190E+02 E0= -.85785372E+02  d E =-.540438E-04
       N       E                     dE             d eps       ncg     rms          rms(c)
DAV:   1    -0.857912367160E+02   -0.46313E-04   -0.53435E-02 51680   0.403E-01    0.396E-02
RMM:   2    -0.857913644788E+02   -0.12776E-03   -0.61339E-04 52118   0.588E-02    0.537E-02
RMM:   3    -0.857912774140E+02    0.87065E-04   -0.56716E-05 52090   0.162E-02    0.272E-02
RMM:   4    -0.857912649721E+02    0.12442E-04   -0.46044E-05 51862   0.110E-02    0.122E-02
RMM:   5    -0.857912644400E+02    0.53205E-06   -0.16710E-05 51752   0.114E-02    0.113E-02
RMM:   6    -0.857912621174E+02    0.23226E-05   -0.34372E-06 51517   0.435E-03    0.408E-03
RMM:   7    -0.857912616493E+02    0.46808E-06   -0.14979E-06 51097   0.348E-03    0.237E-03
RMM:   8    -0.857912615236E+02    0.12573E-06   -0.34908E-07 31309   0.175E-03    0.704E-04
RMM:   9    -0.857912614754E+02    0.48130E-07   -0.36330E-08 28009   0.670E-04
  46 F= -.85791261E+02 E0= -.85785453E+02  d E =-.125175E-03
       N       E                     dE             d eps       ncg     rms          rms(c)
DAV:   1    -0.857913152712E+02   -0.53748E-04   -0.16981E-02 51680   0.217E-01    0.210E-02
RMM:   2    -0.857913514459E+02   -0.36175E-04   -0.22315E-04 52120   0.310E-02    0.274E-02
RMM:   3    -0.857913324383E+02    0.19008E-04   -0.16428E-05 52093   0.838E-03    0.156E-02
RMM:   4    -0.857913274896E+02    0.49488E-05   -0.15683E-05 51884   0.590E-03    0.531E-03
RMM:   5    -0.857913274760E+02    0.13584E-07   -0.53799E-06 51667   0.687E-03    0.494E-03
RMM:   6    -0.857913268929E+02    0.58305E-06   -0.11841E-06 50703   0.349E-03    0.172E-03
RMM:   7    -0.857913268633E+02    0.29606E-07   -0.18591E-07 31211   0.105E-03
  47 F= -.85791327E+02 E0= -.85785524E+02  d E =-.653879E-04
       N       E                     dE             d eps       ncg     rms          rms(c)
DAV:   1    -0.857913319354E+02   -0.50425E-05   -0.64728E-03 51680   0.134E-01    0.131E-02
RMM:   2    -0.857913448418E+02   -0.12906E-04   -0.85967E-05 52121   0.188E-02    0.164E-02
RMM:   3    -0.857913386966E+02    0.61452E-05   -0.62403E-06 51925   0.518E-03    0.994E-03
RMM:   4    -0.857913367973E+02    0.18993E-05   -0.60476E-06 51750   0.413E-03    0.431E-03
RMM:   5    -0.857913366933E+02    0.10397E-06   -0.26827E-06 51490   0.478E-03    0.363E-03
RMM:   6    -0.857913363509E+02    0.34238E-06   -0.48620E-07 40450   0.221E-03    0.150E-03
RMM:   7    -0.857913363157E+02    0.35201E-07   -0.11731E-07 29361   0.967E-04
  48 F= -.85791336E+02 E0= -.85785536E+02  d E =-.748403E-04
       N       E                     dE             d eps       ncg     rms          rms(c)
DAV:   1    -0.857913865306E+02   -0.50180E-04   -0.10232E-02 51680   0.177E-01    0.210E-02
RMM:   2    -0.857914144692E+02   -0.27939E-04   -0.12864E-04 52224   0.245E-02    0.280E-02
RMM:   3    -0.857913967246E+02    0.17745E-04   -0.17302E-05 52268   0.851E-03    0.150E-02
RMM:   4    -0.857913942299E+02    0.24947E-05   -0.11499E-05 51753   0.680E-03    0.110E-02
RMM:   5    -0.857913916619E+02    0.25680E-05   -0.55930E-06 51674   0.578E-03    0.466E-03
RMM:   6    -0.857913911911E+02    0.47084E-06   -0.11396E-06 50469   0.298E-03    0.260E-03
RMM:   7    -0.857913910762E+02    0.11490E-06   -0.59154E-07 42180   0.231E-03    0.125E-03
RMM:   8    -0.857913910530E+02    0.23203E-07   -0.10500E-07 29207   0.919E-04
  49 F= -.85791391E+02 E0= -.85785595E+02  d E =-.547372E-04
       N       E                     dE             d eps       ncg     rms          rms(c)
DAV:   1    -0.857914034667E+02   -0.12391E-04   -0.12030E-02 51680   0.192E-01    0.227E-02
RMM:   2    -0.857914364709E+02   -0.33004E-04   -0.15025E-04 52219   0.266E-02    0.302E-02
RMM:   3    -0.857914151582E+02    0.21313E-04   -0.20164E-05 52287   0.920E-03    0.161E-02
RMM:   4    -0.857914120083E+02    0.31499E-05   -0.12860E-05 51775   0.673E-03    0.110E-02
RMM:   5    -0.857914094560E+02    0.25523E-05   -0.59558E-06 51677   0.598E-03    0.514E-03
RMM:   6    -0.857914088588E+02    0.59714E-06   -0.12142E-06 50301   0.302E-03    0.259E-03
RMM:   7    -0.857914087613E+02    0.97491E-07   -0.68000E-07 43593   0.245E-03
  50 F= -.85791409E+02 E0= -.85785619E+02  d E =-.724456E-04
       N       E                     dE             d eps       ncg     rms          rms(c)
DAV:   1    -0.857914507759E+02   -0.41917E-04   -0.75743E-03 51696   0.150E-01    0.164E-02
RMM:   2    -0.857914740338E+02   -0.23258E-04   -0.90017E-05 52215   0.212E-02    0.239E-02
RMM:   3    -0.857914575570E+02    0.16477E-04   -0.11796E-05 52274   0.696E-03    0.112E-02
RMM:   4    -0.857914559575E+02    0.15995E-05   -0.55366E-06 51735   0.584E-03    0.675E-03
RMM:   5    -0.857914554007E+02    0.55679E-06   -0.38265E-06 51674   0.576E-03    0.398E-03
RMM:   6    -0.857914550400E+02    0.36065E-06   -0.80319E-07 48648   0.249E-03    0.277E-03
RMM:   7    -0.857914548878E+02    0.15226E-06   -0.27730E-07 32579   0.159E-03    0.534E-04
RMM:   8    -0.857914548784E+02    0.93714E-08   -0.37768E-08 28104   0.497E-04
  51 F= -.85791455E+02 E0= -.85785666E+02  d E =-.461171E-04
       N       E                     dE             d eps       ncg     rms          rms(c)
DAV:   1    -0.857914731766E+02   -0.18289E-04   -0.68198E-02 51680   0.450E-01    0.492E-02
RMM:   2    -0.857917048353E+02   -0.23166E-03   -0.81430E-04 52214   0.637E-02    0.751E-02
RMM:   3    -0.857915337471E+02    0.17109E-03   -0.10944E-04 52398   0.214E-02    0.332E-02
RMM:   4    -0.857915210620E+02    0.12685E-04   -0.47939E-05 51956   0.166E-02    0.191E-02
RMM:   5    -0.857915184361E+02    0.26259E-05   -0.33862E-05 51785   0.170E-02    0.125E-02
RMM:   6    -0.857915150936E+02    0.33425E-05   -0.69774E-06 51683   0.727E-03    0.792E-03
RMM:   7    -0.857915138065E+02    0.12872E-05   -0.24257E-06 51377   0.459E-03    0.156E-03
RMM:   8    -0.857915137668E+02    0.39647E-07   -0.26592E-07 31305   0.120E-03
  52 F= -.85791514E+02 E0= -.85785727E+02  d E =-.105005E-03
       N       E                     dE             d eps       ncg     rms          rms(c)
DAV:   1    -0.857915373153E+02   -0.23509E-04   -0.17332E-03 52320   0.686E-02    0.738E-03
RMM:   2    -0.857915412871E+02   -0.39719E-05   -0.22510E-05 52142   0.101E-02    0.939E-03
RMM:   3    -0.857915389474E+02    0.23397E-05   -0.20992E-06 50978   0.292E-03    0.533E-03
RMM:   4    -0.857915384600E+02    0.48731E-06   -0.15108E-06 48479   0.277E-03    0.298E-03
RMM:   5    -0.857915383114E+02    0.14865E-06   -0.94531E-07 49313   0.293E-03    0.157E-03
RMM:   6    -0.857915382483E+02    0.63126E-07   -0.11159E-07 28855   0.115E-03
  53 F= -.85791538E+02 E0= -.85785749E+02  d E =-.244815E-04
       N       E                     dE             d eps       ncg     rms          rms(c)
DAV:   1    -0.857915896863E+02   -0.51375E-04   -0.15584E-02 51680   0.204E-01    0.219E-02
RMM:   2    -0.857916352310E+02   -0.45545E-04   -0.19925E-04 52174   0.291E-02    0.319E-02
RMM:   3    -0.857916038097E+02    0.31421E-04   -0.20165E-05 52157   0.928E-03    0.153E-02
RMM:   4    -0.857916002174E+02    0.35923E-05   -0.12966E-05 51711   0.776E-03    0.796E-03
RMM:   5    -0.857915995594E+02    0.65795E-06   -0.81418E-06 51656   0.844E-03    0.494E-03
RMM:   6    -0.857915990445E+02    0.51494E-06   -0.11396E-06 50032   0.350E-03    0.147E-03
RMM:   7    -0.857915989958E+02    0.48618E-07   -0.17196E-07 30586   0.117E-03
  54 F= -.85791599E+02 E0= -.85785810E+02  d E =-.852290E-04
       N       E                     dE             d eps       ncg     rms          rms(c)
DAV:   1    -0.857916131995E+02   -0.14155E-04   -0.62347E-02 51680   0.408E-01    0.438E-02
RMM:   2    -0.857917959537E+02   -0.18275E-03   -0.80025E-04 52175   0.586E-02    0.636E-02
RMM:   3    -0.857916706402E+02    0.12531E-03   -0.80685E-05 52178   0.186E-02    0.306E-02
RMM:   4    -0.857916567503E+02    0.13890E-04   -0.51766E-05 51861   0.154E-02    0.160E-02
RMM:   5    -0.857916546231E+02    0.21272E-05   -0.32583E-05 51735   0.167E-02    0.105E-02
RMM:   6    -0.857916527536E+02    0.18695E-05   -0.48093E-06 51615   0.672E-03    0.407E-03
RMM:   7    -0.857916523083E+02    0.44528E-06   -0.81629E-07 44286   0.226E-03    0.215E-03
RMM:   8    -0.857916522424E+02    0.65906E-07   -0.26357E-07 31151   0.130E-03
  55 F= -.85791652E+02 E0= -.85785862E+02  d E =-.138476E-03
       N       E                     dE             d eps       ncg     rms          rms(c)
DAV:   1    -0.857916502374E+02    0.20709E-05   -0.38291E-03 52048   0.101E-01    0.110E-02
RMM:   2    -0.857916606257E+02   -0.10388E-04   -0.49494E-05 52170   0.147E-02    0.154E-02
RMM:   3    -0.857916537366E+02    0.68892E-05   -0.49100E-06 51859   0.457E-03    0.772E-03
RMM:   4    -0.857916528370E+02    0.89953E-06   -0.32536E-06 51376   0.408E-03    0.436E-03
RMM:   5    -0.857916525643E+02    0.27272E-06   -0.19721E-06 51357   0.421E-03    0.239E-03
RMM:   6    -0.857916524141E+02    0.15026E-06   -0.25260E-07 30516   0.171E-03    0.121E-03
RMM:   7    -0.857916523914E+02    0.22672E-07   -0.73263E-08 28122   0.909E-04
  56 F= -.85791652E+02 E0= -.85785861E+02  d E =-.138625E-03
       N       E                     dE             d eps       ncg     rms          rms(c)
DAV:   1    -0.857916688172E+02   -0.16403E-04   -0.30957E-03 51680   0.847E-02    0.110E-02
RMM:   2    -0.857916778024E+02   -0.89852E-05   -0.40861E-05 52174   0.117E-02    0.148E-02
RMM:   3    -0.857916722242E+02    0.55782E-05   -0.45445E-06 51804   0.431E-03    0.774E-03
RMM:   4    -0.857916714356E+02    0.78862E-06   -0.30040E-06 51138   0.376E-03    0.468E-03
RMM:   5    -0.857916711603E+02    0.27528E-06   -0.17284E-06 51066   0.359E-03    0.273E-03
RMM:   6    -0.857916709757E+02    0.18460E-06   -0.31727E-07 31995   0.154E-03    0.154E-03
RMM:   7    -0.857916709295E+02    0.46144E-07   -0.11747E-07 28128   0.119E-03
  57 F= -.85791671E+02 E0= -.85785879E+02  d E =-.185381E-04
       N       E                     dE             d eps       ncg     rms          rms(c)
DAV:   1    -0.857916939748E+02   -0.22999E-04   -0.27855E-02 51680   0.255E-01    0.327E-02
RMM:   2    -0.857917824972E+02   -0.88522E-04   -0.37120E-04 52177   0.361E-02    0.454E-02
RMM:   3    -0.857917236456E+02    0.58852E-04   -0.41444E-05 52230   0.131E-02    0.228E-02
RMM:   4    -0.857917158961E+02    0.77494E-05   -0.26596E-05 51856   0.106E-02    0.111E-02
RMM:   5    -0.857917149845E+02    0.91168E-06   -0.14415E-05 51692   0.113E-02    0.722E-03
RMM:   6    -0.857917138006E+02    0.11839E-05   -0.21521E-06 51324   0.449E-03    0.382E-03
RMM:   7    -0.857917134894E+02    0.31113E-06   -0.58614E-07 41708   0.218E-03    0.125E-03
RMM:   8    -0.857917134604E+02    0.29009E-07   -0.19568E-07 30319   0.860E-04
  58 F= -.85791713E+02 E0= -.85785924E+02  d E =-.610690E-04
       N       E                     dE             d eps       ncg     rms          rms(c)
DAV:   1    -0.857916625469E+02    0.50943E-04   -0.11140E-01 51680   0.511E-01    0.654E-02
RMM:   2    -0.857920204433E+02   -0.35790E-03   -0.14867E-03 52174   0.726E-02    0.913E-02
RMM:   3    -0.857917810634E+02    0.23938E-03   -0.16644E-04 52247   0.263E-02    0.457E-02
RMM:   4    -0.857917507810E+02    0.30282E-04   -0.10689E-04 52001   0.211E-02    0.222E-02
RMM:   5    -0.857917474968E+02    0.32842E-05   -0.57945E-05 51777   0.227E-02    0.145E-02
RMM:   6    -0.857917427949E+02    0.47019E-05   -0.86016E-06 51683   0.904E-03    0.751E-03
RMM:   7    -0.857917415572E+02    0.12377E-05   -0.23191E-06 51291   0.430E-03    0.253E-03
RMM:   8    -0.857917414663E+02    0.90826E-07   -0.81430E-07 33649   0.171E-03
  59 F= -.85791741E+02 E0= -.85785955E+02  d E =-.890749E-04
       N       E                     dE             d eps       ncg     rms          rms(c)
DAV:   1    -0.857917669823E+02   -0.25425E-04   -0.41690E-03 51920   0.990E-02    0.149E-02
RMM:   2    -0.857917834192E+02   -0.16437E-04   -0.56350E-05 52219   0.149E-02    0.202E-02
RMM:   3    -0.857917717360E+02    0.11683E-04   -0.79508E-06 52192   0.576E-03    0.103E-02
RMM:   4    -0.857917702020E+02    0.15340E-05   -0.38896E-06 51415   0.435E-03    0.482E-03
RMM:   5    -0.857917699709E+02    0.23113E-06   -0.24680E-06 51409   0.473E-03    0.313E-03
RMM:   6    -0.857917697631E+02    0.20771E-06   -0.39511E-07 33271   0.191E-03    0.169E-03
RMM:   7    -0.857917696995E+02    0.63606E-07   -0.10737E-07 28825   0.105E-03
  60 F= -.85791770E+02 E0= -.85785982E+02  d E =-.282332E-04
       N       E                     dE             d eps       ncg     rms          rms(c)
DAV:   1    -0.857917981095E+02   -0.28346E-04   -0.37454E-02 51680   0.293E-01    0.442E-02
RMM:   2    -0.857919493490E+02   -0.15124E-03   -0.49148E-04 52219   0.422E-02    0.616E-02
RMM:   3    -0.857918391081E+02    0.11024E-03   -0.71262E-05 52369   0.173E-02    0.303E-02
RMM:   4    -0.857918265691E+02    0.12539E-04   -0.32083E-05 51843   0.120E-02    0.135E-02
RMM:   5    -0.857918257114E+02    0.85770E-06   -0.20741E-05 51702   0.133E-02    0.101E-02
RMM:   6    -0.857918234195E+02    0.22918E-05   -0.37503E-06 51547   0.553E-03    0.485E-03
RMM:   7    -0.857918228928E+02    0.52674E-06   -0.98865E-07 47756   0.294E-03    0.115E-03
RMM:   8    -0.857918228764E+02    0.16371E-07   -0.15504E-07 29878   0.749E-04
  61 F= -.85791823E+02 E0= -.85786040E+02  d E =-.814101E-04
       N       E                     dE             d eps       ncg     rms          rms(c)
DAV:   1    -0.857916856258E+02    0.13727E-03   -0.14977E-01 51680   0.586E-01    0.884E-02
RMM:   2    -0.857923047701E+02   -0.61914E-03   -0.19699E-03 52219   0.852E-02    0.124E-01
RMM:   3    -0.857918469621E+02    0.45781E-03   -0.28658E-04 52368   0.347E-02    0.604E-02
RMM:   4    -0.857918006354E+02    0.46327E-04   -0.12885E-04 51932   0.241E-02    0.265E-02
RMM:   5    -0.857917974576E+02    0.31778E-05   -0.82091E-05 51819   0.272E-02    0.194E-02
RMM:   6    -0.857917890287E+02    0.84289E-05   -0.14292E-05 51684   0.114E-02    0.924E-03
RMM:   7    -0.857917870620E+02    0.19667E-05   -0.35122E-06 51453   0.543E-03    0.245E-03
RMM:   8    -0.857917870224E+02    0.39574E-07   -0.68935E-07 34766   0.176E-03
  62 F= -.85791787E+02 E0= -.85786012E+02  d E =-.455561E-04
       N       E                     dE             d eps       ncg     rms          rms(c)
DAV:   1    -0.857917948461E+02   -0.77841E-05   -0.52171E-02 51680   0.345E-01    0.522E-02
RMM:   2    -0.857920263672E+02   -0.23152E-03   -0.68178E-04 52219   0.499E-02    0.759E-02
RMM:   3    -0.857918490338E+02    0.17733E-03   -0.10209E-04 52353   0.210E-02    0.352E-02
RMM:   4    -0.857918345636E+02    0.14470E-04   -0.42696E-05 51862   0.136E-02    0.151E-02
RMM:   5    -0.857918342314E+02    0.33216E-06   -0.27351E-05 51729   0.154E-02    0.118E-02
RMM:   6    -0.857918312249E+02    0.30065E-05   -0.50319E-06 51668   0.655E-03    0.542E-03
RMM:   7    -0.857918305307E+02    0.69419E-06   -0.12241E-06 49372   0.325E-03    0.130E-03
RMM:   8    -0.857918305077E+02    0.22963E-07   -0.19684E-07 30581   0.883E-04
  63 F= -.85791831E+02 E0= -.85786048E+02  d E =-.890414E-04
       N       E                     dE             d eps       ncg     rms          rms(c)
DAV:   1    -0.857918662062E+02   -0.35676E-04   -0.16885E-02 51680   0.181E-01    0.278E-02
RMM:   2    -0.857919324248E+02   -0.66219E-04   -0.22375E-04 52170   0.269E-02    0.395E-02
RMM:   3    -0.857918825313E+02    0.49893E-04   -0.27237E-05 52175   0.109E-02    0.189E-02
RMM:   4    -0.857918769659E+02    0.55654E-05   -0.15829E-05 51665   0.632E-03    0.687E-03
RMM:   5    -0.857918770001E+02   -0.34153E-07   -0.70709E-06 51639   0.730E-03    0.708E-03
RMM:   6    -0.857918760772E+02    0.92290E-06   -0.13644E-06 49146   0.302E-03    0.222E-03
RMM:   7    -0.857918759425E+02    0.13464E-06   -0.24423E-07 32037   0.149E-03    0.855E-04
RMM:   8    -0.857918759338E+02    0.87894E-08   -0.10071E-07 28887   0.750E-04
  64 F= -.85791876E+02 E0= -.85786098E+02  d E =-.454260E-04
       N       E                     dE             d eps       ncg     rms          rms(c)
DAV:   1    -0.857918815245E+02   -0.55819E-05   -0.15206E-01 51680   0.544E-01    0.837E-02
RMM:   2    -0.857924578863E+02   -0.57636E-03   -0.20273E-03 52166   0.815E-02    0.116E-01
RMM:   3    -0.857920346108E+02    0.42328E-03   -0.24282E-04 52212   0.325E-02    0.574E-02
RMM:   4    -0.857919907439E+02    0.43867E-04   -0.14558E-04 51840   0.198E-02    0.223E-02
RMM:   5    -0.857919914539E+02   -0.70999E-06   -0.69004E-05 51762   0.226E-02    0.216E-02
RMM:   6    -0.857919826357E+02    0.88182E-05   -0.12673E-05 51680   0.896E-03    0.681E-03
RMM:   7    -0.857919813892E+02    0.12465E-05   -0.22703E-06 51406   0.444E-03    0.257E-03
RMM:   8    -0.857919812866E+02    0.10261E-06   -0.80852E-07 36560   0.197E-03    0.209E-03
RMM:   9    -0.857919811702E+02    0.11642E-06   -0.33381E-07 31477   0.180E-03    0.739E-04
RMM:  10    -0.857919811448E+02    0.25379E-07   -0.42202E-08 28148   0.711E-04
  65 F= -.85791981E+02 E0= -.85786210E+02  d E =-.150637E-03
       N       E                     dE             d eps       ncg     rms          rms(c)
DAV:   1    -0.857916424390E+02    0.33873E-03   -0.60767E-01 51680   0.109E+00    0.167E-01
RMM:   2    -0.857939944532E+02   -0.23520E-02   -0.81438E-03 52168   0.163E-01    0.235E-01
RMM:   3    -0.857922346122E+02    0.17598E-02   -0.98220E-04 52228   0.651E-02    0.114E-01
RMM:   4    -0.857920873137E+02    0.14730E-03   -0.56655E-04 51897   0.383E-02    0.446E-02
RMM:   5    -0.857920953821E+02   -0.80684E-05   -0.27988E-04 51726   0.447E-02    0.455E-02
RMM:   6    -0.857920556289E+02    0.39753E-04   -0.54056E-05 51687   0.184E-02    0.138E-02
RMM:   7    -0.857920506417E+02    0.49872E-05   -0.95710E-06 51797   0.921E-03    0.506E-03
RMM:   8    -0.857920501808E+02    0.46092E-06   -0.34998E-06 51553   0.389E-03    0.409E-03
RMM:   9    -0.857920497721E+02    0.40865E-06   -0.12303E-06 50610   0.311E-03    0.135E-03
RMM:  10    -0.857920497089E+02    0.63272E-07   -0.10627E-07 29114   0.104E-03
  66 F= -.85792050E+02 E0= -.85786294E+02  d E =-.219201E-03
       N       E                     dE             d eps       ncg     rms          rms(c)
DAV:   1    -0.857920811073E+02   -0.31335E-04   -0.58158E-02 51680   0.309E-01    0.522E-02
RMM:   2    -0.857922968732E+02   -0.21577E-03   -0.81576E-04 52128   0.464E-02    0.703E-02
RMM:   3    -0.857921420148E+02    0.15486E-03   -0.88760E-05 52179   0.194E-02    0.361E-02
RMM:   4    -0.857921248749E+02    0.17140E-04   -0.65827E-05 51813   0.109E-02    0.135E-02
RMM:   5    -0.857921250265E+02   -0.15163E-06   -0.22783E-05 51676   0.117E-02    0.143E-02
RMM:   6    -0.857921207322E+02    0.42943E-05   -0.44948E-06 51628   0.515E-03    0.341E-03
RMM:   7    -0.857921204648E+02    0.26741E-06   -0.72772E-07 46810   0.255E-03    0.179E-03
RMM:   8    -0.857921204045E+02    0.60296E-07   -0.42226E-07 31237   0.131E-03
  67 F= -.85792120E+02 E0= -.85786370E+02  d E =-.706956E-04
       N       E                     dE             d eps       ncg     rms          rms(c)
DAV:   1    -0.857921109595E+02    0.95053E-05   -0.33313E-02 51680   0.234E-01    0.397E-02
RMM:   2    -0.857922390823E+02   -0.12812E-03   -0.47159E-04 52140   0.355E-02    0.542E-02
RMM:   3    -0.857921454349E+02    0.93647E-04   -0.51628E-05 52156   0.149E-02    0.274E-02
RMM:   4    -0.857921359355E+02    0.94994E-05   -0.39144E-05 51752   0.874E-03    0.114E-02
RMM:   5    -0.857921354144E+02    0.52105E-06   -0.14167E-05 51649   0.922E-03    0.108E-02
RMM:   6    -0.857921329956E+02    0.24188E-05   -0.25272E-06 51234   0.385E-03    0.275E-03
RMM:   7    -0.857921328224E+02    0.17329E-06   -0.45322E-07 40299   0.205E-03    0.136E-03
RMM:   8    -0.857921327979E+02    0.24469E-07   -0.24708E-07 30279   0.107E-03
  68 F= -.85792133E+02 E0= -.85786386E+02  d E =-.830890E-04
       N       E                     dE             d eps       ncg     rms          rms(c)
DAV:   1    -0.857921714955E+02   -0.38673E-04   -0.10879E-02 51984   0.143E-01    0.232E-02
RMM:   2    -0.857922126270E+02   -0.41131E-04   -0.14370E-04 52178   0.214E-02    0.305E-02
RMM:   3    -0.857921829060E+02    0.29721E-04   -0.17044E-05 52236   0.871E-03    0.162E-02
RMM:   4    -0.857921801569E+02    0.27492E-05   -0.12759E-05 51638   0.633E-03    0.885E-03
RMM:   5    -0.857921790741E+02    0.10827E-05   -0.56947E-06 51616   0.607E-03    0.532E-03
RMM:   6    -0.857921785012E+02    0.57295E-06   -0.75478E-07 40788   0.218E-03    0.206E-03
RMM:   7    -0.857921784056E+02    0.95606E-07   -0.20143E-07 29937   0.151E-03
  69 F= -.85792178E+02 E0= -.85786431E+02  d E =-.456077E-04
       N       E                     dE             d eps       ncg     rms          rms(c)
DAV:   1    -0.857922291963E+02   -0.50695E-04   -0.97867E-02 51680   0.429E-01    0.693E-02
RMM:   2    -0.857926076119E+02   -0.37842E-03   -0.12947E-03 52177   0.639E-02    0.924E-02
RMM:   3    -0.857923312509E+02    0.27636E-03   -0.15486E-04 52270   0.262E-02    0.485E-02
RMM:   4    -0.857923095477E+02    0.21703E-04   -0.11311E-04 51770   0.190E-02    0.261E-02
RMM:   5    -0.857923011159E+02    0.84318E-05   -0.51326E-05 51708   0.183E-02    0.165E-02
RMM:   6    -0.857922956058E+02    0.55101E-05   -0.74579E-06 51707   0.688E-03    0.621E-03
RMM:   7    -0.857922947199E+02    0.88587E-06   -0.19595E-06 51102   0.436E-03    0.209E-03
RMM:   8    -0.857922946752E+02    0.44696E-07   -0.64710E-07 32530   0.173E-03
  70 F= -.85792295E+02 E0= -.85786552E+02  d E =-.161877E-03
       N       E                     dE             d eps       ncg     rms          rms(c)
DAV:   1    -0.857921651870E+02    0.12953E-03   -0.39147E-01 51680   0.859E-01    0.139E-01
RMM:   2    -0.857937132716E+02   -0.15481E-02   -0.51984E-03 52179   0.128E-01    0.187E-01
RMM:   3    -0.857925589427E+02    0.11543E-02   -0.62530E-04 52274   0.526E-02    0.968E-02
RMM:   4    -0.857924894672E+02    0.69475E-04   -0.45583E-04 51841   0.371E-02    0.525E-02
RMM:   5    -0.857924549967E+02    0.34471E-04   -0.20783E-04 51695   0.361E-02    0.338E-02
RMM:   6    -0.857924319539E+02    0.23043E-04   -0.29858E-05 51792   0.138E-02    0.121E-02
RMM:   7    -0.857924285514E+02    0.34025E-05   -0.73978E-06 51677   0.848E-03    0.436E-03
RMM:   8    -0.857924282351E+02    0.31625E-06   -0.28940E-06 51490   0.361E-03    0.370E-03
RMM:   9    -0.857924279325E+02    0.30262E-06   -0.10381E-06 49990   0.285E-03    0.114E-03
RMM:  10    -0.857924279127E+02    0.19762E-07   -0.76221E-08 29107   0.772E-04
  71 F= -.85792428E+02 E0= -.85786689E+02  d E =-.295115E-03
       N       E                     dE             d eps       ncg     rms          rms(c)
DAV:   1    -0.857912370170E+02    0.11909E-02   -0.15656E+00 51680   0.172E+00    0.277E-01
RMM:   2    -0.857976578114E+02   -0.64208E-02   -0.21007E-02 52179   0.256E-01    0.382E-01
RMM:   3    -0.857927731150E+02    0.48847E-02   -0.25380E-03 52278   0.106E-01    0.193E-01
RMM:   4    -0.857925589875E+02    0.21413E-03   -0.17883E-03 51845   0.708E-02    0.106E-01
RMM:   5    -0.857924238581E+02    0.13513E-03   -0.85853E-04 51687   0.713E-02    0.721E-02
RMM:   6    -0.857923180725E+02    0.10579E-03   -0.12862E-04 51789   0.291E-02    0.235E-02
RMM:   7    -0.857923053705E+02    0.12702E-04   -0.29449E-05 51786   0.169E-02    0.912E-03
RMM:   8    -0.857923036144E+02    0.17560E-05   -0.12796E-05 52028   0.721E-03    0.720E-03
RMM:   9    -0.857923025278E+02    0.10867E-05   -0.42000E-06 51694   0.569E-03    0.245E-03
RMM:  10    -0.857923024909E+02    0.36911E-07   -0.32495E-07 31161   0.153E-03
  72 F= -.85792302E+02 E0= -.85786575E+02  d E =-.169693E-03
       N       E                     dE             d eps       ncg     rms          rms(c)
DAV:   1    -0.857920254802E+02    0.27705E-03   -0.65250E-01 51680   0.111E+00    0.180E-01
RMM:   2    -0.857947879705E+02   -0.27625E-02   -0.85860E-03 52175   0.168E-01    0.250E-01
RMM:   3    -0.857926358630E+02    0.21521E-02   -0.10595E-03 52217   0.702E-02    0.124E-01
RMM:   4    -0.857925457770E+02    0.90086E-04   -0.74780E-04 51827   0.504E-02    0.718E-02
RMM:   5    -0.857924785248E+02    0.67252E-04   -0.34442E-04 51692   0.472E-02    0.397E-02
RMM:   6    -0.857924474972E+02    0.31028E-04   -0.46161E-05 51822   0.173E-02    0.165E-02
RMM:   7    -0.857924409699E+02    0.65273E-05   -0.12523E-05 51752   0.112E-02    0.506E-03
RMM:   8    -0.857924404708E+02    0.49910E-06   -0.36583E-06 51575   0.450E-03    0.469E-03
RMM:   9    -0.857924399916E+02    0.47924E-06   -0.17096E-06 51252   0.352E-03    0.132E-03
RMM:  10    -0.857924400259E+02   -0.34313E-07   -0.11479E-07 29330   0.104E-03
  73 F= -.85792440E+02 E0= -.85786705E+02  d E =-.307228E-03
       N       E                     dE             d eps       ncg     rms          rms(c)
DAV:   1    -0.857924823305E+02   -0.42339E-04   -0.29818E-02 51680   0.232E-01    0.374E-02
RMM:   2    -0.857926113621E+02   -0.12903E-03   -0.39996E-04 52164   0.351E-02    0.531E-02
RMM:   3    -0.857925098393E+02    0.10152E-03   -0.47947E-05 52156   0.148E-02    0.260E-02
RMM:   4    -0.857925082506E+02    0.15886E-05   -0.37207E-05 51670   0.113E-02    0.203E-02
RMM:   5    -0.857925006969E+02    0.75537E-05   -0.19296E-05 51680   0.102E-02    0.831E-03
RMM:   6    -0.857924994672E+02    0.12298E-05   -0.25950E-06 51453   0.472E-03    0.370E-03
RMM:   7    -0.857924991566E+02    0.31060E-06   -0.75456E-07 46595   0.279E-03    0.120E-03
RMM:   8    -0.857924991569E+02   -0.29831E-09   -0.16650E-07 29879   0.105E-03
  74 F= -.85792499E+02 E0= -.85786766E+02  d E =-.591310E-04
       N       E                     dE             d eps       ncg     rms          rms(c)
DAV:   1    -0.857924204353E+02    0.78721E-04   -0.23899E-01 51680   0.657E-01    0.106E-01
RMM:   2    -0.857933787001E+02   -0.95826E-03   -0.31909E-03 52167   0.980E-02    0.144E-01
RMM:   3    -0.857926452786E+02    0.73342E-03   -0.37140E-04 52185   0.407E-02    0.741E-02
RMM:   4    -0.857926352373E+02    0.10041E-04   -0.28948E-04 51681   0.308E-02    0.559E-02
RMM:   5    -0.857925812245E+02    0.54013E-04   -0.15236E-04 51682   0.283E-02    0.244E-02
RMM:   6    -0.857925708168E+02    0.10408E-04   -0.20846E-05 51858   0.134E-02    0.104E-02
RMM:   7    -0.857925683159E+02    0.25009E-05   -0.59508E-06 51564   0.783E-03    0.335E-03
RMM:   8    -0.857925681947E+02    0.12116E-06   -0.13364E-06 50498   0.287E-03    0.289E-03
RMM:   9    -0.857925679923E+02    0.20237E-06   -0.59150E-07 41805   0.224E-03    0.952E-04
RMM:  10    -0.857925679695E+02    0.22861E-07   -0.71146E-08 28727   0.834E-04
  75 F= -.85792568E+02 E0= -.85786838E+02  d E =-.127944E-03
       N       E                     dE             d eps       ncg     rms          rms(c)
DAV:   1    -0.857926132262E+02   -0.45234E-04   -0.59826E-02 51680   0.338E-01    0.536E-02
RMM:   2    -0.857928561886E+02   -0.24296E-03   -0.83653E-04 52165   0.518E-02    0.718E-02
RMM:   3    -0.857926735044E+02    0.18268E-03   -0.10516E-04 52274   0.210E-02    0.374E-02
RMM:   4    -0.857926708253E+02    0.26791E-05   -0.68795E-05 51687   0.152E-02    0.285E-02
RMM:   5    -0.857926570100E+02    0.13815E-04   -0.39308E-05 51680   0.143E-02    0.133E-02
RMM:   6    -0.857926541030E+02    0.29069E-05   -0.63643E-06 51758   0.730E-03    0.571E-03
RMM:   7    -0.857926534123E+02    0.69075E-06   -0.20878E-06 51064   0.454E-03    0.184E-03
RMM:   8    -0.857926533999E+02    0.12362E-07   -0.32552E-07 31284   0.151E-03
  76 F= -.85792653E+02 E0= -.85786927E+02  d E =-.854304E-04
       N       E                     dE             d eps       ncg     rms          rms(c)
DAV:   1    -0.857926252527E+02    0.28160E-04   -0.73560E-02 51680   0.375E-01    0.595E-02
RMM:   2    -0.857929346569E+02   -0.30940E-03   -0.10351E-03 52168   0.574E-02    0.808E-02
RMM:   3    -0.857926989386E+02    0.23572E-03   -0.13077E-04 52270   0.235E-02    0.415E-02
RMM:   4    -0.857926976309E+02    0.13077E-05   -0.85286E-05 51686   0.170E-02    0.323E-02
RMM:   5    -0.857926796879E+02    0.17943E-04   -0.49402E-05 51680   0.160E-02    0.147E-02
RMM:   6    -0.857926762147E+02    0.34732E-05   -0.80054E-06 51757   0.824E-03    0.643E-03
RMM:   7    -0.857926753364E+02    0.87821E-06   -0.26371E-06 51272   0.512E-03    0.206E-03
RMM:   8    -0.857926753221E+02    0.14326E-07   -0.40872E-07 31898   0.172E-03
  77 F= -.85792675E+02 E0= -.85786953E+02  d E =-.107353E-03
       N       E                     dE             d eps       ncg     rms          rms(c)
DAV:   1    -0.857926980562E+02   -0.22720E-04   -0.22670E-02 51840   0.226E-01    0.306E-02
RMM:   2    -0.857927744933E+02   -0.76437E-04   -0.33208E-04 52203   0.358E-02    0.378E-02
RMM:   3    -0.857927276719E+02    0.46821E-04   -0.44912E-05 53397   0.127E-02    0.225E-02
RMM:   4    -0.857927244332E+02    0.32388E-05   -0.18319E-05 51656   0.815E-03    0.164E-02
RMM:   5    -0.857927211316E+02    0.33016E-05   -0.13757E-05 51680   0.829E-03    0.939E-03
RMM:   6    -0.857927198470E+02    0.12846E-05   -0.31766E-06 51555   0.475E-03    0.388E-03
RMM:   7    -0.857927195420E+02    0.30495E-06   -0.88917E-07 48022   0.296E-03    0.990E-04
RMM:   8    -0.857927195386E+02    0.34561E-08   -0.10600E-07 29125   0.858E-04
  78 F= -.85792720E+02 E0= -.85787000E+02  d E =-.442165E-04
       N       E                     dE             d eps       ncg     rms          rms(c)
DAV:   1    -0.857926037531E+02    0.11579E-03   -0.20393E-01 51680   0.676E-01    0.916E-02
RMM:   2    -0.857933086508E+02   -0.70490E-03   -0.29928E-03 52204   0.108E-01    0.115E-01
RMM:   3    -0.857928645393E+02    0.44411E-03   -0.40804E-04 53337   0.385E-02    0.674E-02
RMM:   4    -0.857928372526E+02    0.27287E-04   -0.16428E-04 51709   0.242E-02    0.488E-02
RMM:   5    -0.857928082370E+02    0.29016E-04   -0.12331E-04 51681   0.248E-02    0.283E-02
RMM:   6    -0.857927962432E+02    0.11994E-04   -0.28233E-05 51939   0.142E-02    0.112E-02
RMM:   7    -0.857927937051E+02    0.25381E-05   -0.78189E-06 51825   0.874E-03    0.291E-03
RMM:   8    -0.857927935839E+02    0.12125E-06   -0.97123E-07 47058   0.235E-03    0.250E-03
RMM:   9    -0.857927934549E+02    0.12897E-06   -0.40435E-07 33703   0.191E-03    0.778E-04
RMM:  10    -0.857927934794E+02   -0.24535E-07   -0.56456E-08 28550   0.740E-04
  79 F= -.85792793E+02 E0= -.85787084E+02  d E =-.118157E-03
       N       E                     dE             d eps       ncg     rms          rms(c)
DAV:   1    -0.857927843130E+02    0.91419E-05   -0.11212E-02 51984   0.159E-01    0.214E-02
RMM:   2    -0.857928194947E+02   -0.35182E-04   -0.16281E-04 52199   0.252E-02    0.257E-02
RMM:   3    -0.857927990962E+02    0.20399E-04   -0.21869E-05 53532   0.880E-03    0.159E-02
RMM:   4    -0.857927970346E+02    0.20616E-05   -0.88990E-06 51617   0.566E-03    0.111E-02
RMM:   5    -0.857927955800E+02    0.14546E-05   -0.66445E-06 51676   0.582E-03    0.668E-03
RMM:   6    -0.857927949103E+02    0.66968E-06   -0.15388E-06 51192   0.325E-03    0.265E-03
RMM:   7    -0.857927947709E+02    0.13934E-06   -0.42048E-07 38176   0.204E-03    0.679E-04
RMM:   8    -0.857927947769E+02   -0.60027E-08   -0.56425E-08 28524   0.627E-04
  80 F= -.85792795E+02 E0= -.85787088E+02  d E =-.119455E-03
       N       E                     dE             d eps       ncg     rms          rms(c)
DAV:   1    -0.857928050186E+02   -0.10248E-04   -0.14344E-02 51712   0.174E-01    0.227E-02
RMM:   2    -0.857928369728E+02   -0.31954E-04   -0.22154E-04 52137   0.265E-02    0.229E-02
RMM:   3    -0.857928259149E+02    0.11058E-04   -0.23110E-05 53482   0.893E-03    0.187E-02
RMM:   4    -0.857928220062E+02    0.39087E-05   -0.13969E-05 51645   0.629E-03    0.139E-02
RMM:   5    -0.857928193286E+02    0.26776E-05   -0.88816E-06 51684   0.631E-03    0.627E-03
RMM:   6    -0.857928188162E+02    0.51238E-06   -0.13253E-06 51001   0.314E-03    0.245E-03
RMM:   7    -0.857928187226E+02    0.93554E-07   -0.49979E-07 41283   0.220E-03
  81 F= -.85792819E+02 E0= -.85787114E+02  d E =-.239457E-04
       N       E                     dE             d eps       ncg     rms          rms(c)
DAV:   1    -0.857928187105E+02    0.10574E-06   -0.41979E-05 53536   0.107E-02    0.137E-03
RMM:   2    -0.857928189552E+02   -0.24470E-06   -0.84581E-07 33262   0.203E-03    0.197E-03
RMM:   3    -0.857928188293E+02    0.12582E-06   -0.10868E-07 29109   0.888E-04    0.109E-03
RMM:   4    -0.857928188404E+02   -0.11059E-07   -0.53709E-08 27923   0.678E-04
  82 F= -.85792819E+02 E0= -.85787115E+02  d E =-.240635E-04
       N       E                     dE             d eps       ncg     rms          rms(c)
DAV:   1    -0.857928329188E+02   -0.14089E-04   -0.11565E-02 51760   0.188E-01    0.182E-02
RMM:   2    -0.857928528555E+02   -0.19937E-04   -0.15072E-04 52187   0.284E-02    0.165E-02
RMM:   3    -0.857928513187E+02    0.15368E-05   -0.24106E-05 58169   0.827E-03    0.164E-02
RMM:   4    -0.857928464943E+02    0.48244E-05   -0.61493E-06 51619   0.528E-03    0.976E-03
RMM:   5    -0.857928455692E+02    0.92510E-06   -0.43096E-06 51668   0.485E-03    0.661E-03
RMM:   6    -0.857928453079E+02    0.26128E-06   -0.21005E-06 51393   0.346E-03    0.335E-03
RMM:   7    -0.857928451255E+02    0.18239E-06   -0.80687E-07 48460   0.269E-03    0.777E-04
RMM:   8    -0.857928450966E+02    0.28907E-07   -0.40949E-08 28120   0.539E-04
  83 F= -.85792845E+02 E0= -.85787144E+02  d E =-.262562E-04
