unknown system                          
           1
     5.412900   -5.412900   -0.000000
     0.000000    5.412900   -5.412900
    10.584969   10.584969   10.584969
   Cu   Rh   C    H 
  44   1   1   4
Direct configuration=     1
   0.22222222  0.11111111  0.00000000
   0.22222222  0.44444444  0.00000000
   0.22222222  0.77777778  0.00000000
   0.55555556  0.11111111  0.00000000
   0.55555556  0.44444444  0.00000000
   0.55555556  0.77777778  0.00000000
   0.88888889  0.11111111  0.00000000
   0.88888889  0.44444444  0.00000000
   0.88888889  0.77777778  0.00000000
   0.00000000  0.00000000  0.11363913
   0.00000000  0.33333333  0.11363913
   0.00000000  0.66666667  0.11363913
   0.33333333  0.00000000  0.11363913
   0.33333333  0.33333333  0.11363913
   0.33333333  0.66666667  0.11363913
   0.66666667  0.00000000  0.11363913
   0.66666667  0.33333333  0.11363913
   0.66666667  0.66666667  0.11363913
   0.99895051  0.99818022  0.45372879
   0.22362513  0.11191674  0.33981819
   0.11102732  0.22228826  0.22677062
   0.33498992  0.99812050  0.45391763
   0.55653571  0.11239778  0.34065642
   0.44567567  0.22218502  0.22674705
   0.66855846  0.00126143  0.45357188
   0.89104545  0.11247266  0.34064665
   0.77879352  0.22317291  0.22754802
   0.99899793  0.33490588  0.45384303
   0.22353648  0.44547166  0.33979475
   0.11237994  0.55566404  0.22719128
   0.55729839  0.44553813  0.33960508
   0.44569465  0.55710723  0.22675044
   0.67191263  0.33469252  0.45370665
   0.89013539  0.44509996  0.34024556
   0.77783449  0.55570105  0.22708779
   0.00190102  0.66802401  0.45345348
   0.22410282  0.77899938  0.34022783
   0.11240004  0.89035087  0.22718476
   0.33490842  0.67099795  0.45382230
   0.55654796  0.77803694  0.34060863
   0.44494005  0.88928832  0.22752557
   0.67196867  0.67126151  0.45359382
   0.89016836  0.77891845  0.34018508
   0.77880880  0.88924711  0.22752534
   0.33577910  0.33499445  0.45633307
   0.32727029  0.33218298  0.61691582
   0.31897053  0.45701336  0.64306877
   0.41707625  0.39333175  0.56522995
   0.41155368  0.28108294  0.65087725
   0.17504378  0.20606548  0.60598239
Direct configuration=     2
   0.22222222  0.11111111  0.00000000
   0.22222222  0.44444444  0.00000000
   0.22222222  0.77777778  0.00000000
   0.55555556  0.11111111  0.00000000
   0.55555556  0.44444444  0.00000000
   0.55555556  0.77777778  0.00000000
   0.88888889  0.11111111  0.00000000
   0.88888889  0.44444444  0.00000000
   0.88888889  0.77777778  0.00000000
   0.00000000  0.00000000  0.11363913
   0.00000000  0.33333333  0.11363913
   0.00000000  0.66666667  0.11363913
   0.33333333  0.00000000  0.11363913
   0.33333333  0.33333333  0.11363913
   0.33333333  0.66666667  0.11363913
   0.66666667  0.00000000  0.11363913
   0.66666667  0.33333333  0.11363913
   0.66666667  0.66666667  0.11363913
   0.99898183  0.99820131  0.45369867
   0.22367556  0.11202034  0.33985471
   0.11106985  0.22231083  0.22673917
   0.33497691  0.99813739  0.45388800
   0.55656538  0.11237085  0.34066270
   0.44565397  0.22221330  0.22671485
   0.66855885  0.00126205  0.45352798
   0.89098448  0.11244187  0.34065288
   0.77877302  0.22313125  0.22752386
   0.99902837  0.33491473  0.45381350
   0.22358849  0.44541941  0.33983135
   0.11235724  0.55568358  0.22717916
   0.55719327  0.44548639  0.33964087
   0.44567218  0.55705599  0.22671811
   0.67189287  0.33470256  0.45367708
   0.89015769  0.44514387  0.34025016
   0.77787163  0.55572067  0.22707755
   0.00190164  0.66802474  0.45341258
   0.22405171  0.77897304  0.34023464
   0.11237580  0.89030585  0.22717323
   0.33489376  0.67096776  0.45379220
   0.55657690  0.77809135  0.34061445
   0.44497595  0.88930645  0.22750123
   0.67195082  0.67123142  0.45356441
   0.89018973  0.77889503  0.34018965
   0.77878855  0.88926700  0.22750163
   0.33576981  0.33498908  0.45625087
   0.32731461  0.33222054  0.61693020
   0.31895824  0.45699291  0.64307792
   0.41703748  0.39330702  0.56524559
   0.41153136  0.28107088  0.65088701
   0.17504577  0.20606866  0.60597834
Direct configuration=     3
   0.22222222  0.11111111  0.00000000
   0.22222222  0.44444444  0.00000000
   0.22222222  0.77777778  0.00000000
   0.55555556  0.11111111  0.00000000
   0.55555556  0.44444444  0.00000000
   0.55555556  0.77777778  0.00000000
   0.88888889  0.11111111  0.00000000
   0.88888889  0.44444444  0.00000000
   0.88888889  0.77777778  0.00000000
   0.00000000  0.00000000  0.11363913
   0.00000000  0.33333333  0.11363913
   0.00000000  0.66666667  0.11363913
   0.33333333  0.00000000  0.11363913
   0.33333333  0.33333333  0.11363913
   0.33333333  0.66666667  0.11363913
   0.66666667  0.00000000  0.11363913
   0.66666667  0.33333333  0.11363913
   0.66666667  0.66666667  0.11363913
   0.99907577  0.99826456  0.45360831
   0.22382685  0.11233116  0.33996428
   0.11119742  0.22237855  0.22664480
   0.33493788  0.99818805  0.45379912
   0.55665437  0.11229008  0.34068155
   0.44558889  0.22229816  0.22661825
   0.66856005  0.00126391  0.45339629
   0.89080156  0.11234952  0.34067157
   0.77871149  0.22300629  0.22745139
   0.99911970  0.33494128  0.45372493
   0.22374451  0.44526268  0.33994114
   0.11228917  0.55574219  0.22714282
   0.55687793  0.44533118  0.33974825
   0.44560477  0.55690228  0.22662112
   0.67183357  0.33473269  0.45358839
   0.89022460  0.44527562  0.34026397
   0.77798306  0.55577954  0.22704684
   0.00190351  0.66802695  0.45328989
   0.22389840  0.77889404  0.34025509
   0.11230309  0.89017078  0.22713865
   0.33484977  0.67087718  0.45370193
   0.55666372  0.77825459  0.34063190
   0.44508364  0.88936081  0.22742823
   0.67189726  0.67114115  0.45347618
   0.89025385  0.77882478  0.34020335
   0.77872781  0.88932667  0.22743050
   0.33574193  0.33497298  0.45600429
   0.32744759  0.33233324  0.61697336
   0.31892135  0.45693159  0.64310539
   0.41692117  0.39323284  0.56529250
   0.41146439  0.28103470  0.65091626
   0.17505177  0.20607818  0.60596621
Direct configuration=     4
   0.22222222  0.11111111  0.00000000
   0.22222222  0.44444444  0.00000000
   0.22222222  0.77777778  0.00000000
   0.55555556  0.11111111  0.00000000
   0.55555556  0.44444444  0.00000000
   0.55555556  0.77777778  0.00000000
   0.88888889  0.11111111  0.00000000
   0.88888889  0.44444444  0.00000000
   0.88888889  0.77777778  0.00000000
   0.00000000  0.00000000  0.11363913
   0.00000000  0.33333333  0.11363913
   0.00000000  0.66666667  0.11363913
   0.33333333  0.00000000  0.11363913
   0.33333333  0.33333333  0.11363913
   0.33333333  0.66666667  0.11363913
   0.66666667  0.00000000  0.11363913
   0.66666667  0.33333333  0.11363913
   0.66666667  0.66666667  0.11363913
   0.99926365  0.99839106  0.45342760
   0.22412943  0.11295278  0.34018342
   0.11145256  0.22251398  0.22645607
   0.33485981  0.99828938  0.45362134
   0.55683237  0.11212853  0.34071924
   0.44545872  0.22246787  0.22642506
   0.66856244  0.00126763  0.45313290
   0.89043573  0.11216481  0.34070894
   0.77858844  0.22275635  0.22730645
   0.99930237  0.33499437  0.45354777
   0.22405657  0.44494922  0.34016074
   0.11215303  0.55585940  0.22707014
   0.55624724  0.44502076  0.33996300
   0.44546995  0.55659484  0.22642714
   0.67171499  0.33479295  0.45341099
   0.89035843  0.44553911  0.34029160
   0.77820591  0.55589728  0.22698541
   0.00190724  0.66803137  0.45304451
   0.22359176  0.77873602  0.34029597
   0.11215767  0.88990066  0.22706949
   0.33476180  0.67069603  0.45352138
   0.55683737  0.77858108  0.34066681
   0.44529903  0.88946953  0.22728223
   0.67179015  0.67096061  0.45329971
   0.89038208  0.77868426  0.34023074
   0.77860631  0.88944602  0.22728823
   0.33568616  0.33494078  0.45551112
   0.32771354  0.33255864  0.61705966
   0.31884758  0.45680895  0.64316032
   0.41668855  0.39308448  0.56538631
   0.41133044  0.28096233  0.65097476
   0.17506376  0.20609722  0.60594195
Direct configuration=     5
   0.22222222  0.11111111  0.00000000
   0.22222222  0.44444444  0.00000000
   0.22222222  0.77777778  0.00000000
   0.55555556  0.11111111  0.00000000
   0.55555556  0.44444444  0.00000000
   0.55555556  0.77777778  0.00000000
   0.88888889  0.11111111  0.00000000
   0.88888889  0.44444444  0.00000000
   0.88888889  0.77777778  0.00000000
   0.00000000  0.00000000  0.11363913
   0.00000000  0.33333333  0.11363913
   0.00000000  0.66666667  0.11363913
   0.33333333  0.00000000  0.11363913
   0.33333333  0.33333333  0.11363913
   0.33333333  0.66666667  0.11363913
   0.66666667  0.00000000  0.11363913
   0.66666667  0.33333333  0.11363913
   0.66666667  0.66666667  0.11363913
   0.99918931  0.99834101  0.45349910
   0.22400971  0.11270683  0.34009671
   0.11135161  0.22246040  0.22653074
   0.33489070  0.99824929  0.45369168
   0.55676194  0.11219245  0.34070432
   0.44551022  0.22240072  0.22650150
   0.66856149  0.00126616  0.45323711
   0.89058048  0.11223789  0.34069415
   0.77863713  0.22285524  0.22736380
   0.99923009  0.33497337  0.45361787
   0.22393310  0.44507324  0.34007385
   0.11220689  0.55581303  0.22709890
   0.55649678  0.44514358  0.33987803
   0.44552329  0.55671648  0.22650389
   0.67176191  0.33476911  0.45348118
   0.89030548  0.44543486  0.34028067
   0.77811774  0.55585070  0.22700971
   0.00190576  0.66802962  0.45314160
   0.22371309  0.77879854  0.34027979
   0.11221521  0.89000754  0.22709685
   0.33479661  0.67076770  0.45359281
   0.55676866  0.77845190  0.34065300
   0.44521381  0.88942651  0.22734000
   0.67183253  0.67103204  0.45336953
   0.89033134  0.77873986  0.34021990
   0.77865438  0.88939880  0.22734452
   0.33570823  0.33495352  0.45570625
   0.32760831  0.33246946  0.61702551
   0.31887677  0.45685747  0.64313859
   0.41678059  0.39314318  0.56534919
   0.41138344  0.28099096  0.65095161
   0.17505901  0.20608969  0.60595155
Direct configuration=     6
   0.22222222  0.11111111  0.00000000
   0.22222222  0.44444444  0.00000000
   0.22222222  0.77777778  0.00000000
   0.55555556  0.11111111  0.00000000
   0.55555556  0.44444444  0.00000000
   0.55555556  0.77777778  0.00000000
   0.88888889  0.11111111  0.00000000
   0.88888889  0.44444444  0.00000000
   0.88888889  0.77777778  0.00000000
   0.00000000  0.00000000  0.11363913
   0.00000000  0.33333333  0.11363913
   0.00000000  0.66666667  0.11363913
   0.33333333  0.00000000  0.11363913
   0.33333333  0.33333333  0.11363913
   0.33333333  0.66666667  0.11363913
   0.66666667  0.00000000  0.11363913
   0.66666667  0.33333333  0.11363913
   0.66666667  0.66666667  0.11363913
   0.99920667  0.99834094  0.45342263
   0.22404525  0.11278204  0.34008189
   0.11141708  0.22249420  0.22648550
   0.33486772  0.99825082  0.45361543
   0.55680151  0.11215137  0.34066916
   0.44547136  0.22244459  0.22645479
   0.66856021  0.00126564  0.45313306
   0.89049188  0.11219232  0.34065876
   0.77860456  0.22279454  0.22732064
   0.99925307  0.33498586  0.45354185
   0.22396858  0.44503474  0.34005847
   0.11218421  0.55582640  0.22709450
   0.55641636  0.44510243  0.33986431
   0.44548321  0.55663276  0.22645682
   0.67175174  0.33478705  0.45340539
   0.89033032  0.44548042  0.34025188
   0.77814195  0.55586396  0.22700994
   0.00190081  0.66802771  0.45304409
   0.22365269  0.77876754  0.34025464
   0.11218949  0.88996608  0.22709371
   0.33477045  0.67074169  0.45351661
   0.55680654  0.77852809  0.34061605
   0.44525611  0.88944674  0.22729696
   0.67182550  0.67100400  0.45329288
   0.89035174  0.77871173  0.34019167
   0.77862328  0.88942551  0.22730157
   0.33570021  0.33494907  0.45561691
   0.32720548  0.33210475  0.61701458
   0.31885584  0.45696822  0.64321132
   0.41676590  0.39314493  0.56535320
   0.41142106  0.28092632  0.65102812
   0.17535935  0.20634534  0.60596647
Direct configuration=     7
   0.22222222  0.11111111  0.00000000
   0.22222222  0.44444444  0.00000000
   0.22222222  0.77777778  0.00000000
   0.55555556  0.11111111  0.00000000
   0.55555556  0.44444444  0.00000000
   0.55555556  0.77777778  0.00000000
   0.88888889  0.11111111  0.00000000
   0.88888889  0.44444444  0.00000000
   0.88888889  0.77777778  0.00000000
   0.00000000  0.00000000  0.11363913
   0.00000000  0.33333333  0.11363913
   0.00000000  0.66666667  0.11363913
   0.33333333  0.00000000  0.11363913
   0.33333333  0.33333333  0.11363913
   0.33333333  0.66666667  0.11363913
   0.66666667  0.00000000  0.11363913
   0.66666667  0.33333333  0.11363913
   0.66666667  0.66666667  0.11363913
   0.99920504  0.99834095  0.45342982
   0.22404191  0.11277496  0.34008328
   0.11141092  0.22249102  0.22648975
   0.33486988  0.99825068  0.45362260
   0.55679779  0.11215523  0.34067247
   0.44547501  0.22244046  0.22645918
   0.66856033  0.00126569  0.45314285
   0.89050022  0.11219660  0.34066209
   0.77860762  0.22280025  0.22732470
   0.99925091  0.33498469  0.45354900
   0.22396524  0.44503837  0.34005992
   0.11218635  0.55582514  0.22709492
   0.55642392  0.44510630  0.33986560
   0.44548698  0.55664063  0.22646125
   0.67175270  0.33478536  0.45341252
   0.89032798  0.44547613  0.34025458
   0.77813967  0.55586271  0.22700992
   0.00190128  0.66802789  0.45305326
   0.22365837  0.77877045  0.34025701
   0.11219191  0.88996998  0.22709401
   0.33477291  0.67074414  0.45352378
   0.55680298  0.77852092  0.34061953
   0.44525213  0.88944484  0.22730101
   0.67182616  0.67100664  0.45330009
   0.89034982  0.77871437  0.34019433
   0.77862620  0.88942299  0.22730561
   0.33570096  0.33494949  0.45562531
   0.32724337  0.33213905  0.61701561
   0.31885781  0.45695780  0.64320448
   0.41676728  0.39314477  0.56535283
   0.41141752  0.28093240  0.65102092
   0.17533110  0.20632129  0.60596507
Direct configuration=     8
   0.22222222  0.11111111  0.00000000
   0.22222222  0.44444444  0.00000000
   0.22222222  0.77777778  0.00000000
   0.55555556  0.11111111  0.00000000
   0.55555556  0.44444444  0.00000000
   0.55555556  0.77777778  0.00000000
   0.88888889  0.11111111  0.00000000
   0.88888889  0.44444444  0.00000000
   0.88888889  0.77777778  0.00000000
   0.00000000  0.00000000  0.11363913
   0.00000000  0.33333333  0.11363913
   0.00000000  0.66666667  0.11363913
   0.33333333  0.00000000  0.11363913
   0.33333333  0.33333333  0.11363913
   0.33333333  0.66666667  0.11363913
   0.66666667  0.00000000  0.11363913
   0.66666667  0.33333333  0.11363913
   0.66666667  0.66666667  0.11363913
   0.99919434  0.99831683  0.45334409
   0.22403549  0.11276572  0.34001356
   0.11145433  0.22251257  0.22645639
   0.33484998  0.99823411  0.45353700
   0.55681818  0.11212787  0.34060606
   0.44544398  0.22247079  0.22642473
   0.66855674  0.00126318  0.45303216
   0.89044437  0.11216677  0.34059516
   0.77858364  0.22276050  0.22728585
   0.99924948  0.33499193  0.45346351
   0.22395755  0.44504144  0.33998926
   0.11217881  0.55582214  0.22709971
   0.55642570  0.44510514  0.33979840
   0.44545505  0.55657818  0.22642636
   0.67175943  0.33479990  0.45332772
   0.89033573  0.44548776  0.34020114
   0.77813167  0.55585908  0.22701933
   0.00189276  0.66802349  0.45294957
   0.22363187  0.77875659  0.34020562
   0.11218191  0.88996128  0.22709999
   0.33475152  0.67073928  0.45343917
   0.55682244  0.77856524  0.34055125
   0.44526911  0.88945250  0.22726271
   0.67183397  0.67099855  0.45321401
   0.89035255  0.77870192  0.34014169
   0.77860416  0.88943735  0.22726616
   0.33570352  0.33495171  0.45558940
   0.32725633  0.33215378  0.61707084
   0.31882057  0.45694668  0.64326653
   0.41670895  0.39311572  0.56536936
   0.41137541  0.28087602  0.65108608
   0.17532335  0.20632224  0.60596144
Direct configuration=     9
   0.22222222  0.11111111  0.00000000
   0.22222222  0.44444444  0.00000000
   0.22222222  0.77777778  0.00000000
   0.55555556  0.11111111  0.00000000
   0.55555556  0.44444444  0.00000000
   0.55555556  0.77777778  0.00000000
   0.88888889  0.11111111  0.00000000
   0.88888889  0.44444444  0.00000000
   0.88888889  0.77777778  0.00000000
   0.00000000  0.00000000  0.11363913
   0.00000000  0.33333333  0.11363913
   0.00000000  0.66666667  0.11363913
   0.33333333  0.00000000  0.11363913
   0.33333333  0.33333333  0.11363913
   0.33333333  0.66666667  0.11363913
   0.66666667  0.00000000  0.11363913
   0.66666667  0.33333333  0.11363913
   0.66666667  0.66666667  0.11363913
   0.99916227  0.99824446  0.45308690
   0.22401624  0.11273799  0.33980440
   0.11158455  0.22257720  0.22635629
   0.33479028  0.99818440  0.45328020
   0.55687935  0.11204576  0.34040684
   0.44535090  0.22256177  0.22632139
   0.66854594  0.00125566  0.45270008
   0.89027684  0.11207729  0.34039437
   0.77851170  0.22264124  0.22716931
   0.99924518  0.33501364  0.45320704
   0.22393446  0.44505065  0.33977728
   0.11215619  0.55581315  0.22711408
   0.55643103  0.44510166  0.33959679
   0.44535923  0.55639081  0.22632169
   0.67177964  0.33484351  0.45307331
   0.89035896  0.44552263  0.34004080
   0.77810767  0.55584818  0.22704755
   0.00186720  0.66801031  0.45263851
   0.22355238  0.77871500  0.34005146
   0.11215191  0.88993520  0.22711796
   0.33468735  0.67072469  0.45318536
   0.55688082  0.77869820  0.34034643
   0.44532003  0.88947548  0.22714782
   0.67185741  0.67097428  0.45295576
   0.89036073  0.77866457  0.33998379
   0.77853803  0.88948040  0.22714781
   0.33571120  0.33495836  0.45548166
   0.32729522  0.33219795  0.61723655
   0.31870884  0.45691331  0.64345269
   0.41653395  0.39302858  0.56541897
   0.41124908  0.28070687  0.65128157
   0.17530012  0.20632507  0.60595056
Direct configuration=    10
   0.22222222  0.11111111  0.00000000
   0.22222222  0.44444444  0.00000000
   0.22222222  0.77777778  0.00000000
   0.55555556  0.11111111  0.00000000
   0.55555556  0.44444444  0.00000000
   0.55555556  0.77777778  0.00000000
   0.88888889  0.11111111  0.00000000
   0.88888889  0.44444444  0.00000000
   0.88888889  0.77777778  0.00000000
   0.00000000  0.00000000  0.11363913
   0.00000000  0.33333333  0.11363913
   0.00000000  0.66666667  0.11363913
   0.33333333  0.00000000  0.11363913
   0.33333333  0.33333333  0.11363913
   0.33333333  0.66666667  0.11363913
   0.66666667  0.00000000  0.11363913
   0.66666667  0.33333333  0.11363913
   0.66666667  0.66666667  0.11363913
   0.99909811  0.99809972  0.45257252
   0.22397774  0.11268252  0.33938607
   0.11184498  0.22270647  0.22615611
   0.33467089  0.99808499  0.45276660
   0.55700171  0.11188155  0.34000839
   0.44516473  0.22274374  0.22611469
   0.66852435  0.00124062  0.45203594
   0.88994178  0.11189831  0.33999279
   0.77836782  0.22240274  0.22693623
   0.99923658  0.33505707  0.45269409
   0.22388828  0.44506908  0.33935331
   0.11211095  0.55579517  0.22714283
   0.55644170  0.44509470  0.33919357
   0.44516760  0.55601606  0.22611235
   0.67182004  0.33493074  0.45256451
   0.89040542  0.44559238  0.33972013
   0.77805967  0.55582637  0.22710400
   0.00181608  0.66798394  0.45201638
   0.22339339  0.77863181  0.33974314
   0.11209190  0.88988303  0.22715389
   0.33455902  0.67069552  0.45267773
   0.55699759  0.77896412  0.33993678
   0.44542186  0.88952144  0.22691805
   0.67190429  0.67092574  0.45243926
   0.89037710  0.77858986  0.33966797
   0.77840576  0.88956652  0.22691112
   0.33572654  0.33497167  0.45526618
   0.32737299  0.33228629  0.61756797
   0.31848540  0.45684657  0.64382501
   0.41618396  0.39285429  0.56551818
   0.41099642  0.28036859  0.65167253
   0.17525366  0.20633075  0.60592878
Direct configuration=    11
   0.22222222  0.11111111  0.00000000
   0.22222222  0.44444444  0.00000000
   0.22222222  0.77777778  0.00000000
   0.55555556  0.11111111  0.00000000
   0.55555556  0.44444444  0.00000000
   0.55555556  0.77777778  0.00000000
   0.88888889  0.11111111  0.00000000
   0.88888889  0.44444444  0.00000000
   0.88888889  0.77777778  0.00000000
   0.00000000  0.00000000  0.11363913
   0.00000000  0.33333333  0.11363913
   0.00000000  0.66666667  0.11363913
   0.33333333  0.00000000  0.11363913
   0.33333333  0.33333333  0.11363913
   0.33333333  0.66666667  0.11363913
   0.66666667  0.00000000  0.11363913
   0.66666667  0.33333333  0.11363913
   0.66666667  0.66666667  0.11363913
   0.99909948  0.99810836  0.45244666
   0.22397493  0.11269060  0.33929418
   0.11179648  0.22268001  0.22611165
   0.33466894  0.99809875  0.45264150
   0.55696096  0.11190342  0.33988663
   0.44517180  0.22271842  0.22607050
   0.66851238  0.00123282  0.45189914
   0.88999365  0.11192266  0.33987064
   0.77837228  0.22243149  0.22688135
   0.99923745  0.33503872  0.45256885
   0.22388899  0.44505801  0.33926252
   0.11210365  0.55578538  0.22710021
   0.55641884  0.44507994  0.33910485
   0.44517303  0.55604226  0.22606683
   0.67179862  0.33491796  0.45244077
   0.89036596  0.44552165  0.33962369
   0.77804583  0.55581709  0.22706286
   0.00180491  0.66797322  0.45189245
   0.22344476  0.77865829  0.33964790
   0.11208486  0.88988428  0.22711209
   0.33455744  0.67067707  0.45255369
   0.55695711  0.77889822  0.33981548
   0.44536934  0.88949416  0.22686469
   0.67187571  0.67091045  0.45231459
   0.89033716  0.77861448  0.33956993
   0.77840844  0.88954064  0.22685548
   0.33572141  0.33496769  0.45518412
   0.32744042  0.33231044  0.61756324
   0.31843774  0.45670932  0.64389723
   0.41602555  0.39276791  0.56567250
   0.41083590  0.28035077  0.65172355
   0.17531565  0.20640331  0.60597801
Direct configuration=    12
   0.22222222  0.11111111  0.00000000
   0.22222222  0.44444444  0.00000000
   0.22222222  0.77777778  0.00000000
   0.55555556  0.11111111  0.00000000
   0.55555556  0.44444444  0.00000000
   0.55555556  0.77777778  0.00000000
   0.88888889  0.11111111  0.00000000
   0.88888889  0.44444444  0.00000000
   0.88888889  0.77777778  0.00000000
   0.00000000  0.00000000  0.11363913
   0.00000000  0.33333333  0.11363913
   0.00000000  0.66666667  0.11363913
   0.33333333  0.00000000  0.11363913
   0.33333333  0.33333333  0.11363913
   0.33333333  0.66666667  0.11363913
   0.66666667  0.00000000  0.11363913
   0.66666667  0.33333333  0.11363913
   0.66666667  0.66666667  0.11363913
   0.99910082  0.99811683  0.45232332
   0.22397218  0.11269851  0.33920412
   0.11174895  0.22265408  0.22606809
   0.33466702  0.99811223  0.45251891
   0.55692103  0.11192486  0.33976730
   0.44517873  0.22269360  0.22602719
   0.66850066  0.00122518  0.45176507
   0.89004448  0.11194652  0.33975094
   0.77837665  0.22245967  0.22682757
   0.99923830  0.33502074  0.45244611
   0.22388969  0.44504716  0.33917355
   0.11209650  0.55577579  0.22705844
   0.55639644  0.44506547  0.33901790
   0.44517835  0.55606793  0.22602222
   0.67177763  0.33490544  0.45231950
   0.89032729  0.44545234  0.33952919
   0.77803227  0.55580800  0.22702255
   0.00179397  0.66796273  0.45177099
   0.22349511  0.77868425  0.33955457
   0.11207797  0.88988550  0.22707113
   0.33455589  0.67065899  0.45243213
   0.55691743  0.77883363  0.33969659
   0.44531787  0.88946744  0.22681240
   0.67184770  0.67089547  0.45219240
   0.89029802  0.77863860  0.33947386
   0.77841106  0.88951527  0.22680095
   0.33571638  0.33496379  0.45510370
   0.32750651  0.33233410  0.61755860
   0.31839102  0.45657482  0.64396801
   0.41587031  0.39268325  0.56582374
   0.41067860  0.28033331  0.65177355
   0.17537641  0.20647441  0.60602625
Direct configuration=    13
   0.22222222  0.11111111  0.00000000
   0.22222222  0.44444444  0.00000000
   0.22222222  0.77777778  0.00000000
   0.55555556  0.11111111  0.00000000
   0.55555556  0.44444444  0.00000000
   0.55555556  0.77777778  0.00000000
   0.88888889  0.11111111  0.00000000
   0.88888889  0.44444444  0.00000000
   0.88888889  0.77777778  0.00000000
   0.00000000  0.00000000  0.11363913
   0.00000000  0.33333333  0.11363913
   0.00000000  0.66666667  0.11363913
   0.33333333  0.00000000  0.11363913
   0.33333333  0.33333333  0.11363913
   0.33333333  0.66666667  0.11363913
   0.66666667  0.00000000  0.11363913
   0.66666667  0.33333333  0.11363913
   0.66666667  0.66666667  0.11363913
   0.99910350  0.99813378  0.45207662
   0.22396667  0.11271433  0.33902401
   0.11165389  0.22260223  0.22598096
   0.33466320  0.99813919  0.45227372
   0.55684118  0.11196773  0.33952864
   0.44519259  0.22264397  0.22594057
   0.66847720  0.00120989  0.45149694
   0.89014615  0.11199425  0.33951153
   0.77838539  0.22251603  0.22672000
   0.99924001  0.33498478  0.45220063
   0.22389109  0.44502547  0.33899560
   0.11208219  0.55575661  0.22697491
   0.55635164  0.44503655  0.33884401
   0.44518898  0.55611927  0.22593300
   0.67173564  0.33488040  0.45207696
   0.89024995  0.44531372  0.33934018
   0.77800515  0.55578981  0.22694192
   0.00177208  0.66794173  0.45152809
   0.22359581  0.77873615  0.33936790
   0.11206418  0.88988793  0.22698921
   0.33455279  0.67062284  0.45218901
   0.55683807  0.77870446  0.33945883
   0.44521493  0.88941398  0.22670782
   0.67179167  0.67086550  0.45194802
   0.89021974  0.77868685  0.33928171
   0.77841630  0.88946455  0.22669190
   0.33570632  0.33495599  0.45494286
   0.32763868  0.33238142  0.61754933
   0.31829760  0.45630581  0.64410956
   0.41555982  0.39251394  0.56612621
   0.41036398  0.28029839  0.65187355
   0.17549792  0.20661663  0.60612272
Direct configuration=    14
   0.22222222  0.11111111  0.00000000
   0.22222222  0.44444444  0.00000000
   0.22222222  0.77777778  0.00000000
   0.55555556  0.11111111  0.00000000
   0.55555556  0.44444444  0.00000000
   0.55555556  0.77777778  0.00000000
   0.88888889  0.11111111  0.00000000
   0.88888889  0.44444444  0.00000000
   0.88888889  0.77777778  0.00000000
   0.00000000  0.00000000  0.11363913
   0.00000000  0.33333333  0.11363913
   0.00000000  0.66666667  0.11363913
   0.33333333  0.00000000  0.11363913
   0.33333333  0.33333333  0.11363913
   0.33333333  0.66666667  0.11363913
   0.66666667  0.00000000  0.11363913
   0.66666667  0.33333333  0.11363913
   0.66666667  0.66666667  0.11363913
   0.99910227  0.99812603  0.45218936
   0.22396919  0.11270710  0.33910632
   0.11169734  0.22262593  0.22602078
   0.33466495  0.99812687  0.45238577
   0.55687767  0.11194814  0.33963771
   0.44518625  0.22266665  0.22598015
   0.66848792  0.00121688  0.45161948
   0.89009969  0.11197244  0.33962094
   0.77838139  0.22249027  0.22676915
   0.99923923  0.33500121  0.45231282
   0.22389045  0.44503538  0.33907692
   0.11208873  0.55576538  0.22701308
   0.55637211  0.44504977  0.33892348
   0.44518412  0.55609581  0.22597377
   0.67175483  0.33489184  0.45218780
   0.89028530  0.44537707  0.33942656
   0.77801755  0.55579812  0.22697877
   0.00178209  0.66795133  0.45163910
   0.22354979  0.77871243  0.33945321
   0.11207048  0.88988682  0.22702665
   0.33455421  0.67063936  0.45230012
   0.55687433  0.77876349  0.33956749
   0.44526197  0.88943841  0.22675561
   0.67181727  0.67087919  0.45205970
   0.89025552  0.77866480  0.33936952
   0.77841390  0.88948773  0.22674174
   0.33571092  0.33495956  0.45501637
   0.32757827  0.33235979  0.61755357
   0.31834030  0.45642875  0.64404487
   0.41570171  0.39259132  0.56598798
   0.41050776  0.28031435  0.65182785
   0.17544239  0.20655164  0.60607863
Direct configuration=    15
   0.22222222  0.11111111  0.00000000
   0.22222222  0.44444444  0.00000000
   0.22222222  0.77777778  0.00000000
   0.55555556  0.11111111  0.00000000
   0.55555556  0.44444444  0.00000000
   0.55555556  0.77777778  0.00000000
   0.88888889  0.11111111  0.00000000
   0.88888889  0.44444444  0.00000000
   0.88888889  0.77777778  0.00000000
   0.00000000  0.00000000  0.11363913
   0.00000000  0.33333333  0.11363913
   0.00000000  0.66666667  0.11363913
   0.33333333  0.00000000  0.11363913
   0.33333333  0.33333333  0.11363913
   0.33333333  0.66666667  0.11363913
   0.66666667  0.00000000  0.11363913
   0.66666667  0.33333333  0.11363913
   0.66666667  0.66666667  0.11363913
   0.99911164  0.99816066  0.45206540
   0.22396995  0.11273105  0.33902681
   0.11159002  0.22256882  0.22597592
   0.33468147  0.99816363  0.45226465
   0.55680281  0.11200086  0.33950782
   0.44522119  0.22260304  0.22593673
   0.66847127  0.00120564  0.45149954
   0.89021599  0.11202852  0.33948993
   0.77840703  0.22256519  0.22671355
   0.99923896  0.33496333  0.45219145
   0.22389902  0.44501365  0.33900011
   0.11208201  0.55575300  0.22693385
   0.55633261  0.44502704  0.33884595
   0.44521861  0.55618639  0.22592878
   0.67171222  0.33485486  0.45206740
   0.89022343  0.44527135  0.33932180
   0.77800423  0.55578781  0.22689693
   0.00177253  0.66793862  0.45153551
   0.22363745  0.77875650  0.33934823
   0.11206673  0.88989433  0.22694691
   0.33457362  0.67061660  0.45217927
   0.55679979  0.77863336  0.33943982
   0.44517216  0.88939231  0.22670144
   0.67176520  0.67086471  0.45193919
   0.89019782  0.77870609  0.33926134
   0.77843420  0.88943575  0.22668587
   0.33569358  0.33494592  0.45490232
   0.32736723  0.33225887  0.61766696
   0.31830365  0.45624307  0.64410008
   0.41577952  0.39266784  0.56606525
   0.41035897  0.28029721  0.65186633
   0.17549155  0.20661548  0.60614909
Direct configuration=    16
   0.22222222  0.11111111  0.00000000
   0.22222222  0.44444444  0.00000000
   0.22222222  0.77777778  0.00000000
   0.55555556  0.11111111  0.00000000
   0.55555556  0.44444444  0.00000000
   0.55555556  0.77777778  0.00000000
   0.88888889  0.11111111  0.00000000
   0.88888889  0.44444444  0.00000000
   0.88888889  0.77777778  0.00000000
   0.00000000  0.00000000  0.11363913
   0.00000000  0.33333333  0.11363913
   0.00000000  0.66666667  0.11363913
   0.33333333  0.00000000  0.11363913
   0.33333333  0.33333333  0.11363913
   0.33333333  0.66666667  0.11363913
   0.66666667  0.00000000  0.11363913
   0.66666667  0.33333333  0.11363913
   0.66666667  0.66666667  0.11363913
   0.99911851  0.99818607  0.45197441
   0.22397051  0.11274863  0.33896845
   0.11151124  0.22252691  0.22594300
   0.33469361  0.99819062  0.45217574