       N       E                     dE             d eps       ncg     rms          rms(c)
DAV:   1     0.552411640996E+04    0.55241E+04   -0.21077E+05  5616   0.167E+03
DAV:   2     0.661427840501E+03   -0.48627E+04   -0.45196E+04  5168   0.437E+02
DAV:   3    -0.234958616429E+03   -0.89639E+03   -0.80274E+03  5704   0.192E+02
DAV:   4    -0.316295286819E+03   -0.81337E+02   -0.79518E+02  6072   0.538E+01
DAV:   5    -0.318230497433E+03   -0.19352E+01   -0.19361E+01  6288   0.918E+00    0.102E+02
DAV:   6    -0.462053683763E+03   -0.14382E+03   -0.57242E+02  5848   0.119E+02    0.163E+02
DAV:   7    -0.288306282796E+03    0.17375E+03   -0.26988E+02  6104   0.791E+01    0.611E+01
DAV:   8    -0.288804643225E+03   -0.49836E+00   -0.88668E+01  6480   0.333E+01    0.309E+01
DAV:   9    -0.308048230143E+03   -0.19244E+02   -0.42412E+01  6448   0.310E+01    0.564E+01
DAV:  10    -0.301459823898E+03    0.65884E+01   -0.33066E+01  5872   0.356E+01    0.306E+01
DAV:  11    -0.300885428354E+03    0.57440E+00   -0.17647E+01  6008   0.212E+01    0.222E+01
DAV:  12    -0.299756938878E+03    0.11285E+01   -0.83328E+00  5936   0.171E+01    0.163E+01
DAV:  13    -0.299549008770E+03    0.20793E+00   -0.61104E+00  6128   0.941E+00    0.819E+00
DAV:  14    -0.299502047440E+03    0.46961E-01   -0.19471E+00  6040   0.651E+00    0.578E+00
DAV:  15    -0.299548227938E+03   -0.46180E-01   -0.36946E-01  5912   0.289E+00    0.355E+00
DAV:  16    -0.299681594128E+03   -0.13337E+00   -0.38148E-01  5928   0.299E+00    0.351E+00
DAV:  17    -0.299636240012E+03    0.45354E-01   -0.25111E-01  5880   0.297E+00    0.182E+00
DAV:  18    -0.299634831431E+03    0.14086E-02   -0.46668E-02  5800   0.110E+00    0.798E-01
DAV:  19    -0.299639817110E+03   -0.49857E-02   -0.94597E-03  5896   0.268E-01    0.568E-01
DAV:  20    -0.299643728389E+03   -0.39113E-02   -0.23593E-03  6448   0.175E-01    0.380E-01
DAV:  21    -0.299646078926E+03   -0.23505E-02   -0.12512E-03  6784   0.125E-01    0.230E-01
DAV:  22    -0.299647331313E+03   -0.12524E-02   -0.57891E-04  6704   0.786E-02    0.163E-01
DAV:  23    -0.299649063954E+03   -0.17326E-02   -0.78171E-04  6256   0.122E-01    0.922E-02
DAV:  24    -0.299649495935E+03   -0.43198E-03   -0.35311E-04  5912   0.422E-02    0.768E-02
DAV:  25    -0.299649834585E+03   -0.33865E-03   -0.73154E-05  4728   0.268E-02    0.663E-02
DAV:  26    -0.299650465415E+03   -0.63083E-03   -0.55711E-04  6104   0.652E-02    0.500E-02
DAV:  27    -0.299650871344E+03   -0.40593E-03   -0.69066E-04  6288   0.656E-02    0.364E-02
DAV:  28    -0.299651213026E+03   -0.34168E-03   -0.73454E-04  6240   0.637E-02    0.242E-02
DAV:  29    -0.299651326034E+03   -0.11301E-03   -0.22584E-04  5792   0.288E-02    0.188E-02
DAV:  30    -0.299651424355E+03   -0.98321E-04   -0.21923E-04  4832   0.334E-02    0.112E-02
DAV:  31    -0.299651448611E+03   -0.24256E-04   -0.79672E-05  4440   0.173E-02    0.717E-03
DAV:  32    -0.299651451713E+03   -0.31021E-05   -0.28892E-05  3088   0.112E-02
   1 F= -.29965145E+03 E0= -.29965145E+03  d E =-.299651E+03  mag=     0.0016
       N       E                     dE             d eps       ncg     rms          rms(c)
DAV:   1    -0.298825924350E+03    0.82552E+00   -0.21168E+01  7576   0.539E+01    0.273E+00
DAV:   2    -0.299802886978E+03   -0.97696E+00   -0.99627E+00  5325   0.586E+00    0.190E+00
DAV:   3    -0.299822964680E+03   -0.20078E-01   -0.38210E-01  6520   0.234E+00    0.197E+00
DAV:   4    -0.299816493362E+03    0.64713E-02   -0.13025E-01  6128   0.180E+00    0.154E+00
DAV:   5    -0.299812349951E+03    0.41434E-02   -0.11299E-01  6264   0.111E+00    0.160E+00
DAV:   6    -0.299808027719E+03    0.43222E-02   -0.43199E-02  6376   0.102E+00    0.805E-01
DAV:   7    -0.299803725096E+03    0.43026E-02   -0.11919E-02  6328   0.575E-01    0.567E-01
DAV:   8    -0.299808725214E+03   -0.50001E-02   -0.17660E-02  6240   0.602E-01    0.835E-01
DAV:   9    -0.299803594078E+03    0.51311E-02   -0.13579E-02  6184   0.469E-01    0.249E-01
DAV:  10    -0.299804726280E+03   -0.11322E-02   -0.20944E-03  6464   0.283E-01    0.239E-01
DAV:  11    -0.299803844128E+03    0.88215E-03   -0.81057E-04  6080   0.152E-01    0.927E-02
DAV:  12    -0.299803730501E+03    0.11363E-03   -0.99139E-05  5616   0.285E-02    0.565E-02
DAV:  13    -0.299803825602E+03   -0.95101E-04   -0.38631E-05  4640   0.160E-02    0.231E-02
DAV:  14    -0.299803801458E+03    0.24144E-04   -0.64206E-06  2848   0.821E-03    0.123E-02
DAV:  15    -0.299803818514E+03   -0.17056E-04   -0.29817E-06  2768   0.496E-03    0.467E-03
DAV:  16    -0.299803816687E+03    0.18275E-05   -0.11014E-06  2752   0.258E-03
   2 F= -.29980382E+03 E0= -.29980382E+03  d E =-.152365E+00  mag=     0.0025
       N       E                     dE             d eps       ncg     rms          rms(c)
DAV:   1    -0.299794034567E+03    0.97839E-02   -0.33611E+00  6592   0.107E+01    0.104E+00
DAV:   2    -0.299860587786E+03   -0.66553E-01   -0.64858E-01  5872   0.173E+00    0.154E+00
DAV:   3    -0.299864295008E+03   -0.37072E-02   -0.20421E-01  6112   0.162E+00    0.152E+00
DAV:   4    -0.299857978218E+03    0.63168E-02   -0.51216E-02  6096   0.842E-01    0.733E-01
DAV:   5    -0.299852702022E+03    0.52762E-02   -0.18558E-02  6160   0.387E-01    0.404E-01
DAV:   6    -0.299854868471E+03   -0.21664E-02   -0.60040E-03  6576   0.374E-01    0.411E-01
DAV:   7    -0.299853535908E+03    0.13326E-02   -0.27675E-03  6456   0.335E-01    0.163E-01
DAV:   8    -0.299853221789E+03    0.31412E-03   -0.62159E-04  6664   0.130E-01    0.122E-01
DAV:   9    -0.299853324523E+03   -0.10273E-03   -0.50822E-04  6168   0.125E-01    0.872E-02
DAV:  10    -0.299853341283E+03   -0.16760E-04   -0.13444E-04  5744   0.646E-02    0.601E-02
DAV:  11    -0.299853397776E+03   -0.56493E-04   -0.35218E-05  4208   0.330E-02    0.493E-02
DAV:  12    -0.299853465448E+03   -0.67672E-04   -0.64561E-05  4096   0.247E-02    0.370E-02
DAV:  13    -0.299853484066E+03   -0.18618E-04   -0.50785E-05  3184   0.138E-02    0.373E-02
DAV:  14    -0.299853513153E+03   -0.29087E-04   -0.21879E-05  2928   0.123E-02    0.343E-02
DAV:  15    -0.299853567776E+03   -0.54623E-04   -0.40766E-04  5216   0.383E-02    0.284E-02
DAV:  16    -0.299853561368E+03    0.64080E-05   -0.10318E-04  4072   0.166E-02    0.220E-02
DAV:  17    -0.299853483725E+03    0.77643E-04   -0.24659E-05  3280   0.126E-02    0.865E-03
DAV:  18    -0.299853453745E+03    0.29981E-04   -0.95900E-06  2784   0.557E-03    0.406E-03
DAV:  19    -0.299853458617E+03   -0.48722E-05   -0.23443E-06  2704   0.292E-03
   3 F= -.29985346E+03 E0= -.29985346E+03  d E =-.496419E-01  mag=    -0.0074
       N       E                     dE             d eps       ncg     rms          rms(c)
DAV:   1    -0.299798859213E+03    0.54595E-01   -0.39024E+00  7076   0.143E+01    0.109E+00
DAV:   2    -0.299895091673E+03   -0.96232E-01   -0.93136E-01  5800   0.192E+00    0.145E+00
DAV:   3    -0.299892546966E+03    0.25447E-02   -0.19295E-01  6168   0.175E+00    0.167E+00
DAV:   4    -0.299893552581E+03   -0.10056E-02   -0.62071E-02  5920   0.101E+00    0.106E+00
DAV:   5    -0.299884711389E+03    0.88412E-02   -0.26411E-02  5952   0.517E-01    0.390E-01
DAV:   6    -0.299886174187E+03   -0.14628E-02   -0.52860E-03  6376   0.381E-01    0.457E-01
DAV:   7    -0.299884438076E+03    0.17361E-02   -0.27684E-03  6696   0.364E-01    0.164E-01
DAV:   8    -0.299884291902E+03    0.14617E-03   -0.10179E-03  6832   0.141E-01    0.145E-01
DAV:   9    -0.299884463921E+03   -0.17202E-03   -0.59952E-04  6184   0.133E-01    0.982E-02
DAV:  10    -0.299884422998E+03    0.40922E-04   -0.25648E-04  5712   0.800E-02    0.868E-02
DAV:  11    -0.299884339709E+03    0.83289E-04   -0.15143E-04  5208   0.414E-02    0.843E-02
DAV:  12    -0.299884383593E+03   -0.43884E-04   -0.57148E-05  3576   0.189E-02    0.816E-02
DAV:  13    -0.299884461272E+03   -0.77679E-04   -0.19571E-03  5368   0.847E-02    0.514E-02
DAV:  14    -0.299884544155E+03   -0.82882E-04   -0.30695E-04  5816   0.271E-02    0.513E-02
DAV:  15    -0.299884585648E+03   -0.41494E-04   -0.12175E-04  4640   0.244E-02    0.417E-02
DAV:  16    -0.299884653559E+03   -0.67911E-04   -0.40103E-05  3144   0.132E-02    0.449E-02
DAV:  17    -0.299884658311E+03   -0.47519E-05   -0.51890E-06  2752   0.475E-03
   4 F= -.29988466E+03 E0= -.29988466E+03  d E =-.311997E-01  mag=     0.0121
       N       E                     dE             d eps       ncg     rms          rms(c)
DAV:   1    -0.299844204284E+03    0.40449E-01   -0.15592E+00  7608   0.118E+01    0.691E-01
DAV:   2    -0.299901957847E+03   -0.57754E-01   -0.53438E-01  5680   0.140E+00    0.107E+00
DAV:   3    -0.299894640717E+03    0.73171E-02   -0.95200E-02  6104   0.114E+00    0.119E+00
DAV:   4    -0.299899169794E+03   -0.45291E-02   -0.33567E-02  6056   0.681E-01    0.719E-01
DAV:   5    -0.299894977874E+03    0.41919E-02   -0.11658E-02  6064   0.380E-01    0.243E-01
DAV:   6    -0.299895876054E+03   -0.89818E-03   -0.17915E-03  6256   0.230E-01    0.286E-01
DAV:   7    -0.299895772961E+03    0.10309E-03   -0.12214E-03  6688   0.221E-01    0.149E-01
DAV:   8    -0.299895297221E+03    0.47574E-03   -0.37935E-04  6664   0.894E-02    0.124E-01
DAV:   9    -0.299895194328E+03    0.10289E-03   -0.22282E-04  6248   0.851E-02    0.106E-01
DAV:  10    -0.299895002458E+03    0.19187E-03   -0.13670E-04  5496   0.650E-02    0.929E-02
DAV:  11    -0.299894848700E+03    0.15376E-03   -0.14585E-04  5384   0.459E-02    0.789E-02
DAV:  12    -0.299894845814E+03    0.28859E-05   -0.31200E-05  3304   0.113E-02
   5 F= -.29989485E+03 E0= -.29989485E+03  d E =-.101875E-01  mag=     0.0093
       N       E                     dE             d eps       ncg     rms          rms(c)
DAV:   1    -0.299846984828E+03    0.47864E-01   -0.13965E+00  7760   0.123E+01    0.648E-01
DAV:   2    -0.299903155468E+03   -0.56171E-01   -0.54081E-01  5544   0.133E+00    0.654E-01
DAV:   3    -0.299899260654E+03    0.38948E-02   -0.64446E-02  6184   0.954E-01    0.126E+00
DAV:   4    -0.299901906642E+03   -0.26460E-02   -0.25550E-02  6056   0.687E-01    0.477E-01
DAV:   5    -0.299899863577E+03    0.20431E-02   -0.62168E-03  6256   0.304E-01    0.252E-01
DAV:   6    -0.299900683752E+03   -0.82018E-03   -0.17688E-03  6104   0.200E-01    0.261E-01
DAV:   7    -0.299900637764E+03    0.45988E-04   -0.10653E-03  6352   0.214E-01    0.140E-01
DAV:   8    -0.299900593046E+03    0.44718E-04   -0.61025E-04  6360   0.128E-01    0.116E-01
DAV:   9    -0.299900680082E+03   -0.87036E-04   -0.42031E-04  6328   0.102E-01    0.935E-02
DAV:  10    -0.299900598777E+03    0.81305E-04   -0.95464E-05  5224   0.453E-02    0.876E-02
DAV:  11    -0.299900610849E+03   -0.12072E-04   -0.15971E-05  2992   0.110E-02    0.852E-02
DAV:  12    -0.299900693066E+03   -0.82217E-04   -0.72306E-04  5248   0.525E-02    0.526E-02
DAV:  13    -0.299900729910E+03   -0.36844E-04   -0.37141E-04  5600   0.302E-02    0.342E-02
DAV:  14    -0.299900653672E+03    0.76238E-04   -0.23791E-05  4232   0.151E-02    0.178E-02
DAV:  15    -0.299900570937E+03    0.82735E-04   -0.16735E-05  2856   0.100E-02    0.835E-03
DAV:  16    -0.299900581930E+03   -0.10993E-04   -0.83986E-06  2704   0.686E-03    0.357E-03
DAV:  17    -0.299900580812E+03    0.11179E-05   -0.99744E-07  2704   0.202E-03
   6 F= -.29990058E+03 E0= -.29990058E+03  d E =-.573500E-02  mag=     0.0110
       N       E                     dE             d eps       ncg     rms          rms(c)
DAV:   1    -0.299875627069E+03    0.24955E-01   -0.61190E-01  7752   0.887E+00    0.435E-01
DAV:   2    -0.299902579919E+03   -0.26953E-01   -0.26927E-01  5313   0.924E-01    0.257E-01
DAV:   3    -0.299900576408E+03    0.20035E-02   -0.17687E-02  6608   0.459E-01    0.697E-01
DAV:   4    -0.299902613746E+03   -0.20373E-02   -0.87484E-03  5984   0.330E-01    0.162E-01
DAV:   5    -0.299901923106E+03    0.69064E-03   -0.71757E-04  6456   0.163E-01    0.209E-01
DAV:   6    -0.299902612341E+03   -0.68923E-03   -0.47139E-04  6352   0.134E-01    0.104E-01
DAV:   7    -0.299902099721E+03    0.51262E-03   -0.28224E-04  6008   0.100E-01    0.796E-02
DAV:   8    -0.299902231859E+03   -0.13214E-03   -0.12560E-04  6160   0.650E-02    0.369E-02
DAV:   9    -0.299902235219E+03   -0.33596E-05   -0.33586E-05  4328   0.367E-02
   7 F= -.29990224E+03 E0= -.29990224E+03  d E =-.165441E-02  mag=     0.0070
