 vasp.5.4.4.2.16052018-CX13-ORIG (build Jul 06 2020 08:41:35) complex           
  
 executed on   Pi1911m201i197avx2 date 2024.01.01  08:30:20
 running on   48 total cores
 each image running on   12 cores
 distrk:  each k-point on   12 cores,    1 groups
 distr:  one band on NCORES_PER_BAND=  12 cores,    1 groups


--------------------------------------------------------------------------------------------------------


 INCAR:
 POTCAR:    PAW_PBE Al 04Jan2001                  
 POTCAR:    PAW_PBE Co_pv 23Apr2009               
 POTCAR:    PAW_PBE S 06Sep2000                   

 ----------------------------------------------------------------------------- 
|                                                                             |
|           W    W    AA    RRRRR   N    N  II  N    N   GGGG   !!!           |
|           W    W   A  A   R    R  NN   N  II  NN   N  G    G  !!!           |
|           W    W  A    A  R    R  N N  N  II  N N  N  G       !!!           |
|           W WW W  AAAAAA  RRRRR   N  N N  II  N  N N  G  GGG   !            |
|           WW  WW  A    A  R   R   N   NN  II  N   NN  G    G                |
|           W    W  A    A  R    R  N    N  II  N    N   GGGG   !!!           |
|                                                                             |
|      For optimal performance we recommend to set                            |
|        NCORE= 4 - approx SQRT( number of cores)                             |
|      NCORE specifies how many cores store one orbital (NPAR=cpu/NCORE).     |
|      This setting can  greatly improve the performance of VASP for DFT.     |
|      The default,   NCORE=1            might be grossly inefficient         |
|      on modern multi-core architectures or massively parallel machines.     |
|      Do your own testing !!!!                                               |
|      Unfortunately you need to use the default for GW and RPA calculations. |
|      (for HF NCORE is supported but not extensively tested yet)             |
|                                                                             |
 ----------------------------------------------------------------------------- 

 POTCAR:    PAW_PBE Al 04Jan2001                  
   VRHFIN =Al: s2p1                                                             
   LEXCH  = PE                                                                  
   EATOM  =    53.5387 eV,    3.9350 Ry                                         
                                                                                
   TITEL  = PAW_PBE Al 04Jan2001                                                
   LULTRA =        F    use ultrasoft PP ?                                      
   IUNSCR =        1    unscreen: 0-lin 1-nonlin 2-no                           
   RPACOR =    1.500    partial core radius                                     
   POMASS =   26.981; ZVAL   =    3.000    mass and valenz                      
   RCORE  =    1.900    outmost cutoff radius                                   
   RWIGS  =    2.650; RWIGS  =    1.402    wigner-seitz radius (au A)           
   ENMAX  =  240.300; ENMIN  =  180.225 eV                                      
   ICORE  =        2    local potential                                         
   LCOR   =        T    correct aug charges                                     
   LPAW   =        T    paw PP                                                  
   EAUG   =  291.052                                                            
   DEXC   =    0.000                                                            
   RMAX   =    1.939    core radius for proj-oper                               
   RAUG   =    1.300    factor for augmentation sphere                          
   RDEP   =    1.966    radius for radial grids                                 
   RDEPT  =    1.856    core radius for aug-charge                              
                                                                                
   Atomic configuration                                                         
    6 entries                                                                   
     n  l   j            E        occ.                                          
     1  0  0.50     -1511.1048   2.0000                                         
     2  0  0.50      -108.1629   2.0000                                         
     2  1  1.50       -69.6402   6.0000                                         
     3  0  0.50        -7.7528   2.0000                                         
     3  1  1.50        -2.7121   1.0000                                         
     3  2  2.50        -2.7212   0.0000                                         
   Description                                                                  
     l       E           TYP  RCUT    TYP  RCUT                                 
     0     -7.7528455     23  1.900                                             
     0     -3.3096929     23  1.900                                             
     1     -2.7120682     23  1.900                                             
     1     13.6058260     23  1.900                                             
     2     -2.7211652      7  1.900                                             
  local pseudopotential read in
  partial core-charges read in
  partial kinetic energy density read in
  atomic valenz-charges read in
  non local Contribution for L=           0  read in
    real space projection operators read in
  non local Contribution for L=           0  read in
    real space projection operators read in
  non local Contribution for L=           1  read in
    real space projection operators read in
  non local Contribution for L=           1  read in
    real space projection operators read in
    PAW grid and wavefunctions read in
 
   number of l-projection  operators is LMAX  =           4
   number of lm-projection operators is LMMAX =           8
 
 POTCAR:    PAW_PBE Co_pv 23Apr2009               
   VRHFIN =Co: 3pd7s1                                                           
   LEXCH  = PE                                                                  
   EATOM  =  2948.1334 eV,  216.6817 Ry                                         
                                                                                
   TITEL  = PAW_PBE Co_pv 23Apr2009                                             
   LULTRA =        F    use ultrasoft PP ?                                      
   IUNSCR =        1    unscreen: 0-lin 1-nonlin 2-no                           
   RPACOR =    2.000    partial core radius                                     
   POMASS =   58.933; ZVAL   =   15.000    mass and valenz                      
   RCORE  =    2.300    outmost cutoff radius                                   
   RWIGS  =    2.460; RWIGS  =    1.302    wigner-seitz radius (au A)           
   ENMAX  =  271.042; ENMIN  =  203.281 eV                                      
   ICORE  =        3    local potential                                         
   LCOR   =        T    correct aug charges                                     
   LPAW   =        T    paw PP                                                  
   EAUG   =  543.066                                                            
   DEXC   =    0.000                                                            
   RMAX   =    2.360    core radius for proj-oper                               
   RAUG   =    1.300    factor for augmentation sphere                          
   RDEP   =    2.393    radius for radial grids                                 
   RDEPT  =    1.841    core radius for aug-charge                              
                                                                                
   Atomic configuration                                                         
    8 entries                                                                   
     n  l   j            E        occ.                                          
     1  0  0.50     -7587.6674   2.0000                                         
     2  0  0.50      -893.6084   2.0000                                         
     2  1  1.50      -764.5805   6.0000                                         
     3  0  0.50       -97.5973   2.0000                                         
     3  1  1.50       -60.9648   6.0000                                         
     3  2  2.50        -4.2382   8.0000                                         
     4  0  0.50        -4.3746   1.0000                                         
     4  3  2.50        -1.3606   0.0000                                         
   Description                                                                  
     l       E           TYP  RCUT    TYP  RCUT                                 
     1    -60.9647990     23  2.000                                             
     1     -5.4423304     23  2.000                                             
     2     -4.2382362     23  2.300                                             
     2     -5.5988188     23  2.300                                             
     0     -4.3745797     23  2.300                                             
     0      5.7660125     23  2.300                                             
     3     -1.3605826     23  2.300                                             
  local pseudopotential read in
  partial core-charges read in
  partial kinetic energy density read in
  atomic valenz-charges read in
  non local Contribution for L=           1  read in
    real space projection operators read in
  non local Contribution for L=           1  read in
    real space projection operators read in
  non local Contribution for L=           2  read in
    real space projection operators read in
  non local Contribution for L=           2  read in
    real space projection operators read in
  non local Contribution for L=           0  read in
    real space projection operators read in
  non local Contribution for L=           0  read in
    real space projection operators read in
    PAW grid and wavefunctions read in
 
   number of l-projection  operators is LMAX  =           6
   number of lm-projection operators is LMMAX =          18
 
 POTCAR:    PAW_PBE S 06Sep2000                   
   VRHFIN =S : s2p4                                                             
   LEXCH  = PE                                                                  
   EATOM  =   276.8230 eV,   20.3459 Ry                                         
                                                                                
   TITEL  = PAW_PBE S 06Sep2000                                                 
   LULTRA =        F    use ultrasoft PP ?                                      
   IUNSCR =        1    unscreen: 0-lin 1-nonlin 2-no                           
   RPACOR =    1.500    partial core radius                                     
   POMASS =   32.066; ZVAL   =    6.000    mass and valenz                      
   RCORE  =    1.900    outmost cutoff radius                                   
   RWIGS  =    2.200; RWIGS  =    1.164    wigner-seitz radius (au A)           
   ENMAX  =  258.689; ENMIN  =  194.016 eV                                      
   ICORE  =        2    local potential                                         
   LCOR   =        T    correct aug charges                                     
   LPAW   =        T    paw PP                                                  
   EAUG   =  335.092                                                            
   DEXC   =    0.000                                                            
   RMAX   =    1.942    core radius for proj-oper                               
   RAUG   =    1.300    factor for augmentation sphere                          
   RDEP   =    1.954    radius for radial grids                                 
   RDEPT  =    1.744    core radius for aug-charge                              
                                                                                
   Atomic configuration                                                         
    6 entries                                                                   
     n  l   j            E        occ.                                          
     1  0  0.50     -2405.8406   2.0000                                         
     2  0  0.50      -211.7007   2.0000                                         
     2  1  1.50      -156.4958   6.0000                                         
     3  0  0.50       -17.2562   2.0000                                         
     3  1  0.50        -7.0085   4.0000                                         
     3  2  1.50        -6.8029   0.0000                                         
   Description                                                                  
     l       E           TYP  RCUT    TYP  RCUT                                 
     0    -17.2561641     23  1.900                                             
     0    -15.8743224     23  1.900                                             
     1     -7.0085400     23  1.900                                             
     1     -2.7779785     23  1.900                                             
     2     -6.8029130     23  1.900                                             
  local pseudopotential read in
  partial core-charges read in
  partial kinetic energy density read in
  atomic valenz-charges read in
  non local Contribution for L=           0  read in
    real space projection operators read in
  non local Contribution for L=           0  read in
    real space projection operators read in
  non local Contribution for L=           1  read in
    real space projection operators read in
  non local Contribution for L=           1  read in
    real space projection operators read in
    PAW grid and wavefunctions read in
 
   number of l-projection  operators is LMAX  =           4
   number of lm-projection operators is LMMAX =           8
 
 Optimization of the real space projectors (new method)

 maximal supplied QI-value         = 19.84
 optimisation between [QCUT,QGAM] = [ 11.51, 23.22] = [ 37.09,150.92] Ry 
 Optimized for a Real-space Cutoff    1.18 Angstroem

   l    n(q)    QCUT    max X(q) W(low)/X(q) W(high)/X(q)  e(spline) 
   0      8    11.508   176.870    0.11E-03    0.16E-03    0.40E-07
   0      8    11.508   105.762    0.11E-03    0.16E-03    0.39E-07
   1      8    11.508    55.370    0.23E-03    0.10E-03    0.75E-07
   1      8    11.508    20.208    0.21E-03    0.91E-04    0.68E-07
 Optimization of the real space projectors (new method)

 maximal supplied QI-value         = 16.25
 optimisation between [QCUT,QGAM] = [ 11.54, 23.24] = [ 37.28,151.24] Ry 
 Optimized for a Real-space Cutoff    1.32 Angstroem

   l    n(q)    QCUT    max X(q) W(low)/X(q) W(high)/X(q)  e(spline) 
   1      9    11.539     4.946    0.12E-03    0.47E-03    0.20E-06
   1      9    11.539     5.991    0.19E-03    0.70E-03    0.29E-06
   2      8    11.539    46.947    0.22E-03    0.40E-03    0.23E-06
   2      8    11.539    42.928    0.24E-03    0.42E-03    0.23E-06
   0      9    11.539    68.324    0.11E-03    0.13E-03    0.74E-07
   0      9    11.539    36.926    0.10E-03    0.12E-03    0.70E-07
 Optimization of the real space projectors (new method)

 maximal supplied QI-value         = 19.84
 optimisation between [QCUT,QGAM] = [ 11.51, 23.22] = [ 37.09,150.92] Ry 
 Optimized for a Real-space Cutoff    1.21 Angstroem

   l    n(q)    QCUT    max X(q) W(low)/X(q) W(high)/X(q)  e(spline) 
   0      8    11.508   187.594    0.96E-04    0.18E-03    0.54E-07
   0      8    11.508   164.243    0.96E-04    0.18E-03    0.54E-07
   1      8    11.508    67.533    0.18E-03    0.65E-04    0.94E-07
   1      8    11.508    50.729    0.18E-03    0.63E-04    0.92E-07
  PAW_PBE Al 04Jan2001                  :
 energy of atom  1       EATOM=  -53.5387
 kinetic energy error for atom=    0.0002 (will be added to EATOM!!)
  PAW_PBE Co_pv 23Apr2009               :
 energy of atom  2       EATOM=-2948.1334
 kinetic energy error for atom=    0.0056 (will be added to EATOM!!)
  PAW_PBE S 06Sep2000                   :
 energy of atom  3       EATOM= -276.8230
 kinetic energy error for atom=    0.0016 (will be added to EATOM!!)
 
 
 POSCAR: Al Co  S                                
  positions in direct lattice
  velocities in cartesian coordinates
 exchange correlation table for  LEXCH =        8
   RHO(1)=    0.500       N(1)  =     2000
   RHO(2)=  100.500       N(2)  =     4000
 
 POSCAR: Al Co  S                                
  positions in direct lattice
  velocities in cartesian coordinates
 
 POSCAR: Al Co  S                                
  positions in direct lattice
  velocities in cartesian coordinates
 


--------------------------------------------------------------------------------------------------------


 ion  position               nearest neighbor table
   1  0.000  0.000  0.000-  27 2.31  39 2.31  45 2.31  53 2.31
   2  0.248  0.748  0.748-  32 2.29  34 2.29  38 2.29  36 2.32
   3  0.500  0.000  0.500-  25 2.31  33 2.31  41 2.31  54 2.31
   4  0.500  0.500  0.000-  29 2.31  35 2.31  47 2.31  55 2.31
   5  0.752  0.252  0.748-  42 2.29  44 2.29  46 2.29  40 2.32
   6  0.752  0.748  0.252-  48 2.29  49 2.29  51 2.29  50 2.32
   7  0.148  0.352  0.352-  24 2.34  28 2.34  30 2.34  37 2.79  43 2.79  52 2.79
   8  0.127  0.126  0.627-  43 2.24  41 2.26  45 2.26  44 2.29  24 2.29  34 2.31
   9  0.873  0.874  0.627-  31 2.24  27 2.26  25 2.26  34 2.29  51 2.29  44 2.31
  10  0.375  0.125  0.875-  41 2.27  45 2.27  47 2.27  26 2.28  36 2.28  40 2.28
  11  0.625  0.875  0.875-  25 2.27  27 2.27  29 2.27  36 2.28  40 2.28  50 2.28
  12  0.127  0.373  0.874-  43 2.24  45 2.26  47 2.26  32 2.29  42 2.29  28 2.31
  13  0.873  0.627  0.874-  31 2.24  29 2.26  27 2.26  42 2.29  32 2.29  49 2.31
  14  0.374  0.373  0.627-  43 2.24  41 2.26  47 2.26  38 2.29  30 2.29  46 2.31
  15  0.626  0.627  0.627-  31 2.24  29 2.26  25 2.26  46 2.29  48 2.29  38 2.31
  16  0.375  0.875  0.125-  33 2.27  35 2.27  39 2.27  36 2.28  26 2.28  50 2.28
  17  0.374  0.627  0.373-  37 2.24  35 2.26  33 2.26  30 2.29  38 2.29  48 2.31
  18  0.127  0.627  0.126-  37 2.24  35 2.26  39 2.26  28 2.29  49 2.29  32 2.31
  19  0.127  0.874  0.373-  37 2.24  33 2.26  39 2.26  34 2.29  51 2.29  24 2.31
  20  0.873  0.373  0.126-  52 2.24  53 2.26  55 2.26  49 2.29  28 2.29  42 2.31
  21  0.873  0.126  0.373-  52 2.24  53 2.26  54 2.26  44 2.29  24 2.29  51 2.31
  22  0.625  0.125  0.125-  53 2.27  54 2.27  55 2.27  26 2.28  40 2.28  50 2.28
  23  0.626  0.373  0.373-  52 2.24  54 2.26  55 2.26  48 2.29  46 2.29  30 2.31
  24  0.110  0.114  0.390-   8 2.29  21 2.29  19 2.31   7 2.34
  25  0.638  0.862  0.640-   9 2.26  15 2.26  11 2.27   3 2.31
  26  0.388  0.112  0.112-  10 2.28  16 2.28  22 2.28
  27  0.860  0.862  0.862-   9 2.26  13 2.26  11 2.27   1 2.31
  28  0.110  0.390  0.114-  18 2.29  20 2.29  12 2.31   7 2.34
  29  0.638  0.640  0.862-  13 2.26  15 2.26  11 2.27   4 2.31
  30  0.386  0.390  0.390-  14 2.29  17 2.29  23 2.31   7 2.34
  31  0.858  0.642  0.642-   9 2.24  13 2.24  15 2.24
  32  0.110  0.610  0.886-  12 2.29  13 2.29   2 2.29  18 2.31
  33  0.362  0.862  0.360-  19 2.26  17 2.26  16 2.27   3 2.31
  34  0.110  0.886  0.610-   9 2.29  19 2.29   2 2.29   8 2.31
  35  0.362  0.640  0.138-  17 2.26  18 2.26  16 2.27   4 2.31
  36  0.388  0.888  0.888-  10 2.28  11 2.28  16 2.28   2 2.32
  37  0.142  0.642  0.358-  19 2.24  18 2.24  17 2.24   7 2.79
  38  0.386  0.610  0.610-  14 2.29  17 2.29   2 2.29  15 2.31
  39  0.140  0.862  0.138-  19 2.26  18 2.26  16 2.27   1 2.31
  40  0.612  0.112  0.888-  10 2.28  11 2.28  22 2.28   5 2.32
  41  0.362  0.138  0.640-   8 2.26  14 2.26  10 2.27   3 2.31
  42  0.890  0.390  0.886-  13 2.29  12 2.29   5 2.29  20 2.31
  43  0.142  0.358  0.642-  12 2.24   8 2.24  14 2.24   7 2.79
  44  0.890  0.114  0.610-   8 2.29  21 2.29   5 2.29   9 2.31
  45  0.140  0.138  0.862-  12 2.26   8 2.26  10 2.27   1 2.31
  46  0.614  0.390  0.610-  15 2.29  23 2.29   5 2.29  14 2.31
  47  0.362  0.360  0.862-  12 2.26  14 2.26  10 2.27   4 2.31
  48  0.614  0.610  0.390-  23 2.29  15 2.29   6 2.29  17 2.31
  49  0.890  0.610  0.114-  18 2.29  20 2.29   6 2.29  13 2.31
  50  0.612  0.888  0.112-  11 2.28  16 2.28  22 2.28   6 2.32
  51  0.890  0.886  0.390-   9 2.29  19 2.29   6 2.29  21 2.31
  52  0.858  0.358  0.358-  23 2.24  21 2.24  20 2.24   7 2.79
  53  0.860  0.138  0.138-  20 2.26  21 2.26  22 2.27   1 2.31
  54  0.638  0.138  0.360-  23 2.26  21 2.26  22 2.27   3 2.31
  55  0.638  0.360  0.138-  23 2.26  20 2.26  22 2.27   4 2.31
 
  LATTYP: Found a simple cubic cell.
 ALAT       =     9.6027250954
  
  Lattice vectors:
  
 A1 = (   9.6027250954,   0.0000000000,   0.0000000000)
 A2 = (   0.0000000000,   9.6027250954,   0.0000000000)
 A3 = (   0.0000000000,   0.0000000000,   9.6027250954)


Analysis of symmetry for initial positions (statically):
=====================================================================
 Subroutine PRICEL returns:
 Original cell was already a primitive cell.
 

 Routine SETGRP: Setting up the symmetry group for a 
 simple cubic supercell.


 Subroutine GETGRP returns: Found  6 space group operations
 (whereof  2 operations were pure point group operations)
 out of a pool of 48 trial point group operations.


The static configuration has the point symmetry C_1h.
 The point group associated with its full space group is C_3v.


Analysis of symmetry for dynamics (positions and initial velocities):
=====================================================================
 Subroutine PRICEL returns:
 Original cell was already a primitive cell.
 

 Routine SETGRP: Setting up the symmetry group for a 
 simple cubic supercell.


 Subroutine GETGRP returns: Found  6 space group operations
 (whereof  2 operations were pure point group operations)
 out of a pool of 48 trial point group operations.


The dynamic configuration has the point symmetry C_1h.
 The point group associated with its full space group is C_3v.


Analysis of structural, dynamic, and magnetic symmetry:
=====================================================================
 Subroutine PRICEL returns:
 Original cell was already a primitive cell.
 

 Routine SETGRP: Setting up the symmetry group for a 
 simple cubic supercell.


 Subroutine GETGRP returns: Found  6 space group operations
 (whereof  2 operations were pure point group operations)
 out of a pool of 48 trial point group operations.


The magnetic configuration has the point symmetry C_1h.
 The point group associated with its full space group is C_3v.


 Subroutine INISYM returns: Found  6 space group operations
 (whereof  2 operations are pure point group operations),
 and found     1 'primitive' translations

 
 
 KPOINTS: Monkhorst Pack                          

Automatic generation of k-mesh.
Space group operators:
 irot       det(A)        alpha          n_x          n_y          n_z        tau_x        tau_y        tau_z
    1     1.000000     0.000000     1.000000     0.000000     0.000000     0.000000     0.000000     0.000000
    2    -1.000000   180.000000     0.000000    -0.707107     0.707107     0.000000     0.000000     0.000000
    3     1.000000   120.000000    -0.577350     0.577350     0.577350     0.500000     0.500000     0.000000
    4    -1.000000   180.000000     0.707107     0.000000     0.707107     0.500000     0.000000     0.500000
    5    -1.000000   180.000000     0.707107     0.707107     0.000000     0.500000     0.500000     0.000000
    6     1.000000   120.000000     0.577350    -0.577350    -0.577350     0.500000     0.000000     0.500000
 
 Subroutine IBZKPT returns following result:
 ===========================================
 
 Found      4 irreducible k-points:
 
 Following reciprocal coordinates:
            Coordinates               Weight
  0.000000  0.000000  0.000000      1.000000
  0.500000  0.000000  0.000000      3.000000
  0.500000  0.500000  0.000000      3.000000
  0.500000  0.500000  0.500000      1.000000
 
 Following cartesian coordinates:
            Coordinates               Weight
  0.000000  0.000000  0.000000      1.000000
  0.052069  0.000000  0.000000      3.000000
  0.052069  0.052069  0.000000      3.000000
  0.052069  0.052069  0.052069      1.000000
 
 TETIRR: Found      4 inequivalent tetrahedra from       48


--------------------------------------------------------------------------------------------------------




 Dimension of arrays:
   k-points           NKPTS =      4   k-points in BZ     NKDIM =      4   number of bands    NBANDS=    323
   number of dos      NEDOS =    301   number of ions     NIONS =     55
   non local maximal  LDIM  =      6   non local SUM 2l+1 LMDIM =     18
   total plane-waves  NPLWV = 373248
   max r-space proj   IRMAX =   4139   max aug-charges    IRDMAX=  16603
   dimension x,y,z NGX =    72 NGY =   72 NGZ =   72
   dimension x,y,z NGXF=   144 NGYF=  144 NGZF=  144
   support grid    NGXF=   144 NGYF=  144 NGZF=  144
   ions per type =               7  16  32
   NGX,Y,Z   is equivalent  to a cutoff of  12.46, 12.46, 12.46 a.u.
   NGXF,Y,Z  is equivalent  to a cutoff of  24.93, 24.93, 24.93 a.u.

 SYSTEM =  AlCo2S4                                 
 POSCAR =  Al Co  S                                

 Startparameter for this run:
   NWRITE =      2    write-flag & timer
   PREC   = accura    normal or accurate (medium, high low for compatibility)
   ISTART =      0    job   : 0-new  1-cont  2-samecut
   ICHARG =      1    charge: 1-file 2-atom 10-const
   ISPIN  =      2    spin polarized calculation?
   LNONCOLLINEAR =      F non collinear calculations
   LSORBIT =      F    spin-orbit coupling
   INIWAV =      1    electr: 0-lowe 1-rand  2-diag
   LASPH  =      F    aspherical Exc in radial PAW
   METAGGA=      F    non-selfconsistent MetaGGA calc.

 Electronic Relaxation 1
   ENCUT  =  520.0 eV  38.22 Ry    6.18 a.u.  17.85 17.85 17.85*2*pi/ulx,y,z
   ENINI  =  520.0     initial cutoff
   ENAUG  =  543.1 eV  augmentation charge cutoff
   NELM   =    100;   NELMIN=  2; NELMDL= -5     # of ELM steps 
   EDIFF  = 0.1E-04   stopping-criterion for ELM
   LREAL  =      T    real-space projection
   NLSPLINE    = F    spline interpolate recip. space projectors
   LCOMPAT=      F    compatible to vasp.4.4
   GGA_COMPAT  = T    GGA compatible to vasp.4.4-vasp.4.6
   LMAXPAW     = -100 max onsite density
   LMAXMIX     =    4 max onsite mixed and CHGCAR
   VOSKOWN=      0    Vosko Wilk Nusair interpolation
   ROPT   =   -0.00025  -0.00025  -0.00025
 Ionic relaxation
   EDIFFG = -.5E-01   stopping-criterion for IOM
   NSW    =    199    number of steps for IOM
   NBLOCK =      1;   KBLOCK =    199    inner block; outer block 
   IBRION =      1    ionic relax: 0-MD 1-quasi-New 2-CG
   NFREE  =      0    steps in history (QN), initial steepest desc. (CG)
   ISIF   =      2    stress and relaxation
   IWAVPR =     11    prediction:  0-non 1-charg 2-wave 3-comb
   ISYM   =      2    0-nonsym 1-usesym 2-fastsym
   LCORR  =      T    Harris-Foulkes like correction to forces

   POTIM  = 0.5000    time-step for ionic-motion
   TEIN   =    0.0    initial temperature
   TEBEG  =    0.0;   TEEND  =   0.0 temperature during run
   SMASS  =  -3.00    Nose mass-parameter (am)
   estimated Nose-frequenzy (Omega)   =  0.10E-29 period in steps =****** mass=  -0.211E-26a.u.
   SCALEE = 1.0000    scale energy and forces
   NPACO  =    256;   APACO  = 16.0  distance and # of slots for P.C.
   PSTRESS=    0.0 pullay stress

  Mass of Ions in am
   POMASS =  26.98 58.93 32.07
  Ionic Valenz
   ZVAL   =   3.00 15.00  6.00
  Atomic Wigner-Seitz radii
   RWIGS  =  -1.00 -1.00 -1.00
  virtual crystal weights 
   VCA    =   1.00  1.00  1.00
   NELECT =     453.0000    total number of electrons
   NUPDOWN=      -1.0000    fix difference up-down

 DOS related values:
   EMIN   =  10.00;   EMAX   =-10.00  energy-range for DOS
   EFERMI =   0.00
   ISMEAR =    -5;   SIGMA  =   0.05  broadening in eV -4-tet -1-fermi 0-gaus

 Electronic relaxation 2 (details)
   IALGO  =     38    algorithm
   LDIAG  =      T    sub-space diagonalisation (order eigenvalues)
   LSUBROT=      F    optimize rotation matrix (better conditioning)
   TURBO    =      0    0=normal 1=particle mesh
   IRESTART =      0    0=no restart 2=restart with 2 vectors
   NREBOOT  =      0    no. of reboots
   NMIN     =      0    reboot dimension
   EREF     =   0.00    reference energy to select bands
   IMIX   =      4    mixing-type and parameters
     AMIX     =   0.40;   BMIX     =  1.00
     AMIX_MAG =   1.60;   BMIX_MAG =  1.00
     AMIN     =   0.10
     WC   =   100.;   INIMIX=   1;  MIXPRE=   1;  MAXMIX= -45

 Intra band minimization:
   WEIMIN = 0.0010     energy-eigenvalue tresh-hold
   EBREAK =  0.77E-08  absolut break condition
   DEPER  =   0.30     relativ break condition  

   TIME   =   0.40     timestep for ELM

  volume/ion in A,a.u.               =      16.10       108.65
  Fermi-wavevector in a.u.,A,eV,Ry     =   1.309322  2.474259 23.324789  1.714324
  Thomas-Fermi vector in A             =   2.439928
 
 Write flags
   LWAVE        =      F    write WAVECAR
   LDOWNSAMPLE  =      F    k-point downsampling of WAVECAR
   LCHARG       =      F    write CHGCAR
   LVTOT        =      F    write LOCPOT, total local potential
   LVHAR        =      F    write LOCPOT, Hartree potential only
   LELF         =      F    write electronic localiz. function (ELF)
   LORBIT       =     11    0 simple, 1 ext, 2 COOP (PROOUT), +10 PAW based schemes


 Dipole corrections
   LMONO  =      F    monopole corrections only (constant potential shift)
   LDIPOL =      F    correct potential (dipole corrections)
   IDIPOL =      0    1-x, 2-y, 3-z, 4-all directions 
   EPSILON=  1.0000000 bulk dielectric constant

 Exchange correlation treatment:
   GGA     =    --    GGA type
   LEXCH   =     8    internal setting for exchange type
   VOSKOWN=      0    Vosko Wilk Nusair interpolation
   LHFCALC =     F    Hartree Fock is set to
   LHFONE  =     F    Hartree Fock one center treatment
   AEXX    =    0.0000 exact exchange contribution

 Linear response parameters
   LEPSILON=     F    determine dielectric tensor
   LRPA    =     F    only Hartree local field effects (RPA)
   LNABLA  =     F    use nabla operator in PAW spheres
   LVEL    =     F    velocity operator in full k-point grid
   LINTERFAST=   F  fast interpolation
   KINTER  =     0    interpolate to denser k-point grid
   CSHIFT  =0.1000    complex shift for real part using Kramers Kronig
   OMEGAMAX=  -1.0    maximum frequency
   DEG_THRESHOLD= 0.2000000E-02 threshold for treating states as degnerate
   RTIME   =   -0.100 relaxation time in fs
  (WPLASMAI=    0.000 imaginary part of plasma frequency in eV, 0.658/RTIME)
   DFIELD  = 0.0000000 0.0000000 0.0000000 field for delta impulse in time
 
 Orbital magnetization related:
   ORBITALMAG=     F  switch on orbital magnetization
   LCHIMAG   =     F  perturbation theory with respect to B field
   DQ        =  0.001000  dq finite difference perturbation B field
   LLRAUG    =     F  two centre corrections for induced B field



--------------------------------------------------------------------------------------------------------


 quasi-Newton-method for relaxation of ions
 charge density and potential will be updated during run
 spin polarized calculation
 Variant of blocked Davidson
 Davidson routine will perform the subspace rotation
 perform sub-space diagonalisation
    after iterative eigenvector-optimisation
 modified Broyden-mixing scheme, WC =      100.0
 initial mixing is a Kerker type mixing with AMIX =  0.4000 and BMIX =      1.0000
 Hartree-type preconditioning will be used
 using additional bands           96
 real space projection scheme for non local part
 use partial core corrections
 calculate Harris-corrections to forces 
   (improved forces if not selfconsistent)
 use gradient corrections 
 use of overlap-Matrix (Vanderbilt PP)
 Fermi weights with tetrahedron method with Bloechl corrections


--------------------------------------------------------------------------------------------------------


  energy-cutoff  :      520.00
  volume of cell :      885.49
      direct lattice vectors                 reciprocal lattice vectors
     9.602725095  0.000000000  0.000000000     0.104137106  0.000000000  0.000000000
     0.000000000  9.602725095  0.000000000     0.000000000  0.104137106  0.000000000
     0.000000000  0.000000000  9.602725095     0.000000000  0.000000000  0.104137106

  length of vectors
     9.602725095  9.602725095  9.602725095     0.104137106  0.104137106  0.104137106


 
 k-points in units of 2pi/SCALE and weight: Monkhorst Pack                          
   0.00000000  0.00000000  0.00000000       0.125
   0.05206855  0.00000000  0.00000000       0.375
   0.05206855  0.05206855  0.00000000       0.375
   0.05206855  0.05206855  0.05206855       0.125
 
 k-points in reciprocal lattice and weights: Monkhorst Pack                          
   0.00000000  0.00000000  0.00000000       0.125
   0.50000000  0.00000000  0.00000000       0.375
   0.50000000  0.50000000  0.00000000       0.375
   0.50000000  0.50000000  0.50000000       0.125
 
 position of ions in fractional coordinates (direct lattice) 
   0.00000000  0.00000000  0.00000000
   0.24816687  0.74816687  0.74816687
   0.50000000  0.00000000  0.50000000
   0.50000000  0.50000000  0.00000000
   0.75183313  0.25183313  0.74816687
   0.75183313  0.74816687  0.25183313
   0.14816687  0.35183313  0.35183313
   0.12728522  0.12621581  0.62728522
   0.87271478  0.87378419  0.62728522
   0.37526679  0.12473321  0.87526679
   0.62473321  0.87526679  0.87526679
   0.12728522  0.37271478  0.87378419
   0.87271478  0.62728522  0.87378419
   0.37378419  0.37271478  0.62728522
   0.62621581  0.62728522  0.62728522
   0.37526679  0.87526679  0.12473321
   0.37378419  0.62728522  0.37271478
   0.12728522  0.62728522  0.12621581
   0.12728522  0.87378419  0.37271478
   0.87271478  0.37271478  0.12621581
   0.87271478  0.12621581  0.37271478
   0.62473321  0.12473321  0.12473321
   0.62621581  0.37271478  0.37271478
   0.11040639  0.11363286  0.38959361
   0.63809977  0.86190023  0.63971123
   0.38779841  0.11220159  0.11220159
   0.86028877  0.86190023  0.86190023
   0.11040639  0.38959361  0.11363286
   0.63809977  0.63971123  0.86190023
   0.38636714  0.38959361  0.38959361
   0.85812981  0.64187019  0.64187019
   0.11040639  0.61040639  0.88636714
   0.36190023  0.86190023  0.36028877
   0.11040639  0.88636714  0.61040639
   0.36190023  0.63971123  0.13809977
   0.38779841  0.88779841  0.88779841
   0.14187019  0.64187019  0.35812981
   0.38636714  0.61040639  0.61040639
   0.13971123  0.86190023  0.13809977
   0.61220159  0.11220159  0.88779841
   0.36190023  0.13809977  0.63971123
   0.88959361  0.38959361  0.88636714
   0.14187019  0.35812981  0.64187019
   0.88959361  0.11363286  0.61040639
   0.13971123  0.13809977  0.86190023
   0.61363286  0.38959361  0.61040639
   0.36190023  0.36028877  0.86190023
   0.61363286  0.61040639  0.38959361
   0.88959361  0.61040639  0.11363286
   0.61220159  0.88779841  0.11220159
   0.88959361  0.88636714  0.38959361
   0.85812981  0.35812981  0.35812981
   0.86028877  0.13809977  0.13809977
   0.63809977  0.13809977  0.36028877
   0.63809977  0.36028877  0.13809977
 
 position of ions in cartesian coordinates  (Angst):
   0.00000000  0.00000000  0.00000000
   2.38307820  7.18444075  7.18444075
   4.80136255  0.00000000  4.80136255
   4.80136255  4.80136255  0.00000000
   7.21964689  2.41828434  7.18444075
   7.21964689  7.18444075  2.41828434
   1.42280569  3.37855685  3.37855685
   1.22228500  1.21201577  6.02364755
   8.38044009  8.39070932  6.02364755
   3.60358382  1.19777872  8.40494637
   5.99914127  8.40494637  8.40494637
   1.22228500  3.57907754  8.39070932
   8.38044009  6.02364755  8.39070932
   3.58934678  3.57907754  6.02364755
   6.01337832  6.02364755  6.02364755
   3.60358382  8.40494637  1.19777872
   3.58934678  6.02364755  3.57907754
   1.22228500  6.02364755  1.21201577
   1.22228500  8.39070932  3.57907754
   8.38044009  3.57907754  1.21201577
   8.38044009  1.21201577  3.57907754
   5.99914127  1.19777872  1.19777872
   6.01337832  3.57907754  3.57907754
   1.06020222  1.09118511  3.74116032
   6.12749671  8.27659094  6.14297108
   3.72392154  1.07744101  1.07744101
   8.26111656  8.27659094  8.27659094
   1.06020222  3.74116032  1.09118511
   6.12749671  6.14297108  8.27659094
   3.71017744  3.74116032  3.74116032
   8.24038465  6.16370300  6.16370300
   1.06020222  5.86156477  8.51153998
   3.47522839  8.27659094  3.45975401
   1.06020222  8.51153998  5.86156477
   3.47522839  6.14297108  1.32613416
   3.72392154  8.52528409  8.52528409
   1.36234045  6.16370300  3.43902210
   3.71017744  5.86156477  5.86156477
   1.34160853  8.27659094  1.32613416
   5.87880356  1.07744101  8.52528409
   3.47522839  1.32613416  6.14297108
   8.54252287  3.74116032  8.51153998
   1.36234045  3.43902210  6.16370300
   8.54252287  1.09118511  5.86156477
   1.34160853  1.32613416  8.27659094
   5.89254766  3.74116032  5.86156477
   3.47522839  3.45975401  8.27659094
   5.89254766  5.86156477  3.74116032
   8.54252287  5.86156477  1.09118511
   5.87880356  8.52528409  1.07744101
   8.54252287  8.51153998  3.74116032
   8.24038465  3.43902210  3.43902210
   8.26111656  1.32613416  1.32613416
   6.12749671  1.32613416  3.45975401
   6.12749671  3.45975401  1.32613416
 


--------------------------------------------------------------------------------------------------------


 k-point  1 :   0.0000 0.0000 0.0000  plane waves:   23847
 k-point  2 :   0.5000 0.0000 0.0000  plane waves:   23844
 k-point  3 :   0.5000 0.5000 0.0000  plane waves:   23900
 k-point  4 :   0.5000 0.5000 0.5000  plane waves:   23984

 maximum and minimum number of plane-waves per node :      2020     1956

 maximum number of plane-waves:     23984
 maximum index in each direction: 
   IXMAX=   17   IYMAX=   17   IZMAX=   17
   IXMIN=  -18   IYMIN=  -18   IZMIN=  -18


 real space projection operators:
  total allocation   :      16157.31 KBytes
  max/ min on nodes  :       1378.16       1314.28


 parallel 3D FFT for wavefunctions:
    minimum data exchange during FFTs selected (reduces bandwidth)
 parallel 3D FFT for charge:
    minimum data exchange during FFTs selected (reduces bandwidth)


 total amount of memory used by VASP MPI-rank0   154730. kBytes
=======================================================================

   base      :      30000. kBytes
   nonlr-proj:       5461. kBytes
   fftplans  :       9381. kBytes
   grid      :      24648. kBytes
   one-center:        155. kBytes
   wavefun   :      85085. kBytes
 
     INWAV:  cpu time    0.0000: real time    0.0000
 Broyden mixing: mesh for mixing (old mesh)
   NGX = 35   NGY = 35   NGZ = 35
  (NGX  =144   NGY  =144   NGZ  =144)
  gives a total of  42875 points

 initial charge density was supplied:
 charge density of overlapping atoms calculated
 number of electron     453.0000000 magnetization     103.4000000
 keeping initial charge density in first step


--------------------------------------------------------------------------------------------------------


 Maximum index for non-local projection operator          323
 Maximum index for augmentation-charges         1389 (set IRDMAX)


--------------------------------------------------------------------------------------------------------


 First call to EWALD:  gamma=   0.185
 Maximum number of real-space cells 3x 3x 3
 Maximum number of reciprocal cells 3x 3x 3

    FEWALD:  cpu time    0.0026: real time    0.0026


--------------------------------------- Iteration      1(   1)  ---------------------------------------


    POTLOK:  cpu time    0.3376: real time    0.3418
    SETDIJ:  cpu time    0.0270: real time    0.0271
     EDDAV:  cpu time   19.9855: real time   20.0958
 BZINTS: Fermi energy: 25.708070;453.000000 electrons
         Band energy:1751.786067;  BLOECHL correction: -0.069903
       DOS:  cpu time    0.0035: real time    0.0035
    --------------------------------------------
      LOOP:  cpu time   20.3535: real time   20.4682

 eigenvalue-minimisations  :  5616
 total energy-change (2. order) : 0.5524116E+04  (-0.2107674E+05)
 number of electron     453.0000000 magnetization     103.4000000
 augmentation part      453.0000000 magnetization     103.4000000

 Free energy of the ion-electron system (eV)
  ---------------------------------------------------
  alpha Z        PSCENC =      1269.90711959
  Ewald energy   TEWEN  =    -29609.90600688
  -Hartree energ DENC   =    -23163.92072889
  -exchange      EXHF   =         0.00000000
  -V(xc)+E(xc)   XCENC  =      1710.09903232
  PAW double counting   =     44894.81802819   -47731.76596422
  entropy T*S    EENTRO =         0.00000000
  eigenvalues    EBANDS =      1751.78606738
  atomic energy  EATOM  =     56403.09886247
  Solvation  Ediel_sol  =         0.00000000
  ---------------------------------------------------
  free energy    TOTEN  =      5524.11640996 eV

  energy without entropy =     5524.11640996  energy(sigma->0) =     5524.11640996


--------------------------------------------------------------------------------------------------------




--------------------------------------- Iteration      1(   2)  ---------------------------------------


     EDDAV:  cpu time   18.7254: real time   18.8317
 BZINTS: Fermi energy: 11.444227;453.000000 electrons
         Band energy:***********;  BLOECHL correction: -0.022331
       DOS:  cpu time    0.0031: real time    0.0031
    --------------------------------------------
      LOOP:  cpu time   18.7285: real time   18.8348

 eigenvalue-minimisations  :  5168
 total energy-change (2. order) :-0.4862689E+04  (-0.4519554E+04)
 number of electron     453.0000000 magnetization     103.4000000
 augmentation part      453.0000000 magnetization     103.4000000

 Free energy of the ion-electron system (eV)
  ---------------------------------------------------
  alpha Z        PSCENC =      1269.90711959
  Ewald energy   TEWEN  =    -29609.90600688
  -Hartree energ DENC   =    -23163.92072889
  -exchange      EXHF   =         0.00000000
  -V(xc)+E(xc)   XCENC  =      1710.09903232
  PAW double counting   =     44894.81802819   -47731.76596422
  entropy T*S    EENTRO =         0.00000000
  eigenvalues    EBANDS =     -3110.90250208
  atomic energy  EATOM  =     56403.09886247
  Solvation  Ediel_sol  =         0.00000000
  ---------------------------------------------------
  free energy    TOTEN  =       661.42784050 eV

  energy without entropy =      661.42784050  energy(sigma->0) =      661.42784050


--------------------------------------------------------------------------------------------------------




--------------------------------------- Iteration      1(   3)  ---------------------------------------


     EDDAV:  cpu time   20.2198: real time   20.3530
 BZINTS: Fermi energy:  9.215032;453.000000 electrons
         Band energy:***********;  BLOECHL correction: -0.135461
       DOS:  cpu time    0.0032: real time    0.0032
    --------------------------------------------
      LOOP:  cpu time   20.2230: real time   20.3562

 eigenvalue-minimisations  :  5704
 total energy-change (2. order) :-0.8963865E+03  (-0.8027410E+03)
 number of electron     453.0000000 magnetization     103.4000000
 augmentation part      453.0000000 magnetization     103.4000000

 Free energy of the ion-electron system (eV)
  ---------------------------------------------------
  alpha Z        PSCENC =      1269.90711959
  Ewald energy   TEWEN  =    -29609.90600688
  -Hartree energ DENC   =    -23163.92072889
  -exchange      EXHF   =         0.00000000
  -V(xc)+E(xc)   XCENC  =      1710.09903232
  PAW double counting   =     44894.81802819   -47731.76596422
  entropy T*S    EENTRO =         0.00000000
  eigenvalues    EBANDS =     -4007.28895901
  atomic energy  EATOM  =     56403.09886247
  Solvation  Ediel_sol  =         0.00000000
  ---------------------------------------------------
  free energy    TOTEN  =      -234.95861643 eV

  energy without entropy =     -234.95861643  energy(sigma->0) =     -234.95861643


--------------------------------------------------------------------------------------------------------




--------------------------------------- Iteration      1(   4)  ---------------------------------------


     EDDAV:  cpu time   21.1844: real time   21.3249
 BZINTS: Fermi energy:  9.015018;453.000000 electrons
         Band energy:***********;  BLOECHL correction: -0.149971
       DOS:  cpu time    0.0032: real time    0.0033
    --------------------------------------------
      LOOP:  cpu time   21.1877: real time   21.3283

 eigenvalue-minimisations  :  6072
 total energy-change (2. order) :-0.8133667E+02  (-0.7951786E+02)
 number of electron     453.0000000 magnetization     103.4000000
 augmentation part      453.0000000 magnetization     103.4000000

 Free energy of the ion-electron system (eV)
  ---------------------------------------------------
  alpha Z        PSCENC =      1269.90711959
  Ewald energy   TEWEN  =    -29609.90600688
  -Hartree energ DENC   =    -23163.92072889
  -exchange      EXHF   =         0.00000000
  -V(xc)+E(xc)   XCENC  =      1710.09903232
  PAW double counting   =     44894.81802819   -47731.76596422
  entropy T*S    EENTRO =         0.00000000
  eigenvalues    EBANDS =     -4088.62562940
  atomic energy  EATOM  =     56403.09886247
  Solvation  Ediel_sol  =         0.00000000
  ---------------------------------------------------
  free energy    TOTEN  =      -316.29528682 eV

  energy without entropy =     -316.29528682  energy(sigma->0) =     -316.29528682


--------------------------------------------------------------------------------------------------------




--------------------------------------- Iteration      1(   5)  ---------------------------------------


     EDDAV:  cpu time   21.7299: real time   21.8542
 BZINTS: Fermi energy:  9.003640;453.000000 electrons
         Band energy:***********;  BLOECHL correction: -0.136730
       DOS:  cpu time    0.0029: real time    0.0029
    CHARGE:  cpu time    0.6935: real time    0.6968
    MIXING:  cpu time    0.0052: real time    0.0052
    --------------------------------------------
      LOOP:  cpu time   22.4316: real time   22.5592

 eigenvalue-minimisations  :  6288
 total energy-change (2. order) :-0.1935211E+01  (-0.1936115E+01)
 number of electron     452.9999928 magnetization      83.0812958
 augmentation part      110.5702967 magnetization      64.4398216

 Broyden mixing:
  rms(total) = 0.10204E+02    rms(broyden)= 0.10203E+02
  rms(prec ) = 0.11891E+02
  weight for this iteration     100.00

 Free energy of the ion-electron system (eV)
  ---------------------------------------------------
  alpha Z        PSCENC =      1269.90711959
  Ewald energy   TEWEN  =    -29609.90600688
  -Hartree energ DENC   =    -23163.92072889
  -exchange      EXHF   =         0.00000000
  -V(xc)+E(xc)   XCENC  =      1710.09903232
  PAW double counting   =     44894.81802819   -47731.76596422
  entropy T*S    EENTRO =         0.00000000
  eigenvalues    EBANDS =     -4090.56084001
  atomic energy  EATOM  =     56403.09886247
  Solvation  Ediel_sol  =         0.00000000
  ---------------------------------------------------
  free energy    TOTEN  =      -318.23049743 eV

  energy without entropy =     -318.23049743  energy(sigma->0) =     -318.23049743


--------------------------------------------------------------------------------------------------------




--------------------------------------- Iteration      1(   6)  ---------------------------------------


    POTLOK:  cpu time    0.3214: real time    0.3233
    SETDIJ:  cpu time    0.0269: real time    0.0270
     EDDAV:  cpu time   20.6021: real time   20.7118
 BZINTS: Fermi energy:  5.253902;453.000000 electrons
         Band energy:***********;  BLOECHL correction: -0.111090
       DOS:  cpu time    0.0031: real time    0.0031
    CHARGE:  cpu time    0.6941: real time    0.6971
    MIXING:  cpu time    0.0063: real time    0.0064
    --------------------------------------------
      LOOP:  cpu time   21.6539: real time   21.7687

 eigenvalue-minimisations  :  5848
 total energy-change (2. order) :-0.1438232E+03  (-0.5724167E+02)
 number of electron     452.9999896 magnetization      72.5881687
 augmentation part      169.2368446 magnetization      63.8701158

 Broyden mixing:
  rms(total) = 0.16286E+02    rms(broyden)= 0.16286E+02
  rms(prec ) = 0.19479E+02
  weight for this iteration     100.00

 eigenvalues of (default mixing * dielectric matrix)
  average eigenvalue GAMMA=   0.1326
  0.1326

 Free energy of the ion-electron system (eV)
  ---------------------------------------------------
  alpha Z        PSCENC =      1269.90711959
  Ewald energy   TEWEN  =    -29609.90600688
  -Hartree energ DENC   =    -21520.87455798
  -exchange      EXHF   =         0.00000000
  -V(xc)+E(xc)   XCENC  =      1650.32016250
  PAW double counting   =     49636.52647485   -52259.00849794
  entropy T*S    EENTRO =         0.00000000
  eigenvalues    EBANDS =     -6032.11724038
  atomic energy  EATOM  =     56403.09886247
  Solvation  Ediel_sol  =         0.00000000
  ---------------------------------------------------
  free energy    TOTEN  =      -462.05368376 eV

  energy without entropy =     -462.05368376  energy(sigma->0) =     -462.05368376


--------------------------------------------------------------------------------------------------------




--------------------------------------- Iteration      1(   7)  ---------------------------------------


    POTLOK:  cpu time    0.3089: real time    0.3114
    SETDIJ:  cpu time    0.0273: real time    0.0274
     EDDAV:  cpu time   21.2524: real time   21.3653
 BZINTS: Fermi energy:  5.919469;453.000000 electrons
         Band energy:***********;  BLOECHL correction: -0.183379
       DOS:  cpu time    0.0032: real time    0.0032
    CHARGE:  cpu time    0.6840: real time    0.6876
    MIXING:  cpu time    0.0075: real time    0.0076
    --------------------------------------------
      LOOP:  cpu time   22.2833: real time   22.4025

 eigenvalue-minimisations  :  6104
 total energy-change (2. order) : 0.1737474E+03  (-0.2698815E+02)
 number of electron     452.9999922 magnetization      49.8203408
 augmentation part      144.2363987 magnetization      45.5123349

 Broyden mixing:
  rms(total) = 0.61059E+01    rms(broyden)= 0.61039E+01
  rms(prec ) = 0.70975E+01
  weight for this iteration     100.00

 eigenvalues of (default mixing * dielectric matrix)
  average eigenvalue GAMMA=   0.5932
  0.5932  0.5932

 Free energy of the ion-electron system (eV)
  ---------------------------------------------------
  alpha Z        PSCENC =      1269.90711959
  Ewald energy   TEWEN  =    -29609.90600688
  -Hartree energ DENC   =    -22446.11416923
  -exchange      EXHF   =         0.00000000
  -V(xc)+E(xc)   XCENC  =      1668.73380621
  PAW double counting   =     52966.48305159   -55784.77479414
  entropy T*S    EENTRO =         0.00000000
  eigenvalues    EBANDS =     -4755.73415241
  atomic energy  EATOM  =     56403.09886247
  Solvation  Ediel_sol  =         0.00000000
  ---------------------------------------------------
  free energy    TOTEN  =      -288.30628280 eV

  energy without entropy =     -288.30628280  energy(sigma->0) =     -288.30628280


--------------------------------------------------------------------------------------------------------




--------------------------------------- Iteration      1(   8)  ---------------------------------------


    POTLOK:  cpu time    0.3111: real time    0.3131
    SETDIJ:  cpu time    0.0272: real time    0.0273
     EDDAV:  cpu time   22.2637: real time   22.3850
 BZINTS: Fermi energy:  6.745047;453.000000 electrons
         Band energy:***********;  BLOECHL correction: -0.351855
       DOS:  cpu time    0.0032: real time    0.0032
    CHARGE:  cpu time    0.6735: real time    0.6769
    MIXING:  cpu time    0.0076: real time    0.0076
    --------------------------------------------
      LOOP:  cpu time   23.2863: real time   23.4131

 eigenvalue-minimisations  :  6480
 total energy-change (2. order) :-0.4983604E+00  (-0.8866835E+01)
 number of electron     452.9999941 magnetization      23.9044423
 augmentation part      130.6982614 magnetization      22.6308386

 Broyden mixing:
  rms(total) = 0.30911E+01    rms(broyden)= 0.30889E+01
  rms(prec ) = 0.32507E+01
  weight for this iteration     100.00

 eigenvalues of (default mixing * dielectric matrix)
  average eigenvalue GAMMA=   0.7658
  1.1912  0.4512  0.6551

 Free energy of the ion-electron system (eV)
  ---------------------------------------------------
  alpha Z        PSCENC =      1269.90711959
  Ewald energy   TEWEN  =    -29609.90600688
  -Hartree energ DENC   =    -22794.83404359
  -exchange      EXHF   =         0.00000000
  -V(xc)+E(xc)   XCENC  =      1670.16818798
  PAW double counting   =     58193.37540615   -61048.56212030
  entropy T*S    EENTRO =         0.00000000
  eigenvalues    EBANDS =     -4372.05204864
  atomic energy  EATOM  =     56403.09886247
  Solvation  Ediel_sol  =         0.00000000
  ---------------------------------------------------
  free energy    TOTEN  =      -288.80464323 eV

  energy without entropy =     -288.80464323  energy(sigma->0) =     -288.80464323


--------------------------------------------------------------------------------------------------------




--------------------------------------- Iteration      1(   9)  ---------------------------------------


    POTLOK:  cpu time    0.3270: real time    0.3291
    SETDIJ:  cpu time    0.0275: real time    0.0276
     EDDAV:  cpu time   22.1185: real time   22.2386
 BZINTS: Fermi energy:  6.748804;453.000000 electrons
         Band energy:***********;  BLOECHL correction: -0.023043
       DOS:  cpu time    0.0033: real time    0.0033
    CHARGE:  cpu time    0.6695: real time    0.6726
    MIXING:  cpu time    0.0070: real time    0.0071
    --------------------------------------------
      LOOP:  cpu time   23.1528: real time   23.2783

 eigenvalue-minimisations  :  6448
 total energy-change (2. order) :-0.1924359E+02  (-0.4241194E+01)
 number of electron     452.9999923 magnetization      15.7375511
 augmentation part      130.5990943 magnetization      13.1143998

 Broyden mixing:
  rms(total) = 0.56448E+01    rms(broyden)= 0.56434E+01
  rms(prec ) = 0.81131E+01
  weight for this iteration     100.00

 eigenvalues of (default mixing * dielectric matrix)
  average eigenvalue GAMMA=   0.7135
  1.4863  0.5613  0.4033  0.4033

 Free energy of the ion-electron system (eV)
  ---------------------------------------------------
  alpha Z        PSCENC =      1269.90711959
  Ewald energy   TEWEN  =    -29609.90600688
  -Hartree energ DENC   =    -22753.04513548
  -exchange      EXHF   =         0.00000000
  -V(xc)+E(xc)   XCENC  =      1664.11210430
  PAW double counting   =     62750.09136144   -65586.92797837
  entropy T*S    EENTRO =         0.00000000
  eigenvalues    EBANDS =     -4445.37855722
  atomic energy  EATOM  =     56403.09886247
  Solvation  Ediel_sol  =         0.00000000
  ---------------------------------------------------
  free energy    TOTEN  =      -308.04823014 eV

  energy without entropy =     -308.04823014  energy(sigma->0) =     -308.04823014


--------------------------------------------------------------------------------------------------------




--------------------------------------- Iteration      1(  10)  ---------------------------------------


    POTLOK:  cpu time    0.3121: real time    0.3140
    SETDIJ:  cpu time    0.0269: real time    0.0270
     EDDAV:  cpu time   20.5729: real time   20.6855
 BZINTS: Fermi energy:  6.694584;453.000000 electrons
         Band energy:***********;  BLOECHL correction: -0.183851
       DOS:  cpu time    0.0030: real time    0.0031
    CHARGE:  cpu time    0.6700: real time    0.6731
    MIXING:  cpu time    0.0069: real time    0.0070
    --------------------------------------------
      LOOP:  cpu time   21.5919: real time   21.7097

 eigenvalue-minimisations  :  5872
 total energy-change (2. order) : 0.6588406E+01  (-0.3306566E+01)
 number of electron     452.9999923 magnetization      12.4340668
 augmentation part      133.1389146 magnetization      11.0580442

 Broyden mixing:
  rms(total) = 0.30565E+01    rms(broyden)= 0.30545E+01
  rms(prec ) = 0.40718E+01
  weight for this iteration     100.00

 eigenvalues of (default mixing * dielectric matrix)
  average eigenvalue GAMMA=   0.6763
  1.5825  0.6428  0.5100  0.5100  0.1364

 Free energy of the ion-electron system (eV)
  ---------------------------------------------------
  alpha Z        PSCENC =      1269.90711959
  Ewald energy   TEWEN  =    -29609.90600688
  -Hartree energ DENC   =    -22743.18315430
  -exchange      EXHF   =         0.00000000
  -V(xc)+E(xc)   XCENC  =      1663.04308271
  PAW double counting   =     64051.53110796   -66887.36651518
  entropy T*S    EENTRO =         0.00000000
  eigenvalues    EBANDS =     -4448.58432027
  atomic energy  EATOM  =     56403.09886247
  Solvation  Ediel_sol  =         0.00000000
  ---------------------------------------------------
  free energy    TOTEN  =      -301.45982390 eV

  energy without entropy =     -301.45982390  energy(sigma->0) =     -301.45982390


--------------------------------------------------------------------------------------------------------




--------------------------------------- Iteration      1(  11)  ---------------------------------------


    POTLOK:  cpu time    0.2900: real time    0.2918
    SETDIJ:  cpu time    0.0258: real time    0.0259
     EDDAV:  cpu time   20.9962: real time   21.1148
 BZINTS: Fermi energy:  6.803714;453.000000 electrons
         Band energy:***********;  BLOECHL correction: -0.380144
       DOS:  cpu time    0.0032: real time    0.0032
    CHARGE:  cpu time    0.6841: real time    0.6877
    MIXING:  cpu time    0.0073: real time    0.0073
    --------------------------------------------
      LOOP:  cpu time   22.0065: real time   22.1307

 eigenvalue-minimisations  :  6008
 total energy-change (2. order) : 0.5743955E+00  (-0.1764743E+01)
 number of electron     452.9999951 magnetization      10.8693117
 augmentation part      132.7654877 magnetization       9.3195914

 Broyden mixing:
  rms(total) = 0.22215E+01    rms(broyden)= 0.22199E+01
  rms(prec ) = 0.31667E+01
  weight for this iteration     100.00

 eigenvalues of (default mixing * dielectric matrix)
  average eigenvalue GAMMA=   0.6244
  1.5380  0.7299  0.5228  0.5228  0.2881  0.1444

 Free energy of the ion-electron system (eV)
  ---------------------------------------------------
  alpha Z        PSCENC =      1269.90711959
  Ewald energy   TEWEN  =    -29609.90600688
  -Hartree energ DENC   =    -22768.13689510
  -exchange      EXHF   =         0.00000000
  -V(xc)+E(xc)   XCENC  =      1663.14999424
  PAW double counting   =     64028.71429591   -66870.89610850
  entropy T*S    EENTRO =         0.00000000
  eigenvalues    EBANDS =     -4416.81669008
  atomic energy  EATOM  =     56403.09886247
  Solvation  Ediel_sol  =         0.00000000
  ---------------------------------------------------
  free energy    TOTEN  =      -300.88542835 eV

  energy without entropy =     -300.88542835  energy(sigma->0) =     -300.88542835


--------------------------------------------------------------------------------------------------------




--------------------------------------- Iteration      1(  12)  ---------------------------------------


    POTLOK:  cpu time    0.2804: real time    0.2819
    SETDIJ:  cpu time    0.0259: real time    0.0260
     EDDAV:  cpu time   20.5790: real time   20.6895
 BZINTS: Fermi energy:  6.819932;453.000000 electrons
         Band energy:***********;  BLOECHL correction: -0.226387
       DOS:  cpu time    0.0030: real time    0.0030
    CHARGE:  cpu time    0.6871: real time    0.6902
    MIXING:  cpu time    0.0078: real time    0.0079
    --------------------------------------------
      LOOP:  cpu time   21.5834: real time   21.6986

 eigenvalue-minimisations  :  5936
 total energy-change (2. order) : 0.1128489E+01  (-0.8332765E+00)
 number of electron     452.9999926 magnetization       7.6541763
 augmentation part      132.1005431 magnetization       6.6815611

 Broyden mixing:
  rms(total) = 0.16283E+01    rms(broyden)= 0.16269E+01
  rms(prec ) = 0.23011E+01
  weight for this iteration     100.00

 eigenvalues of (default mixing * dielectric matrix)
  average eigenvalue GAMMA=   0.6560
  1.3472  1.3472  0.5347  0.5347  0.5270  0.1607  0.1405

 Free energy of the ion-electron system (eV)
  ---------------------------------------------------
  alpha Z        PSCENC =      1269.90711959
  Ewald energy   TEWEN  =    -29609.90600688
  -Hartree energ DENC   =    -22790.18086555
  -exchange      EXHF   =         0.00000000
  -V(xc)+E(xc)   XCENC  =      1663.65681701
  PAW double counting   =     63797.01931262   -66644.73703947
  entropy T*S    EENTRO =         0.00000000
  eigenvalues    EBANDS =     -4388.61513867
  atomic energy  EATOM  =     56403.09886247
  Solvation  Ediel_sol  =         0.00000000
  ---------------------------------------------------
  free energy    TOTEN  =      -299.75693888 eV

  energy without entropy =     -299.75693888  energy(sigma->0) =     -299.75693888


--------------------------------------------------------------------------------------------------------




--------------------------------------- Iteration      1(  13)  ---------------------------------------


    POTLOK:  cpu time    0.3024: real time    0.3047
    SETDIJ:  cpu time    0.0276: real time    0.0278
     EDDAV:  cpu time   21.0512: real time   21.1679
 BZINTS: Fermi energy:  6.929297;453.000000 electrons
         Band energy:***********;  BLOECHL correction: -0.472660
       DOS:  cpu time    0.0032: real time    0.0032
    CHARGE:  cpu time    0.6986: real time    0.7020
    MIXING:  cpu time    0.0080: real time    0.0081
    --------------------------------------------
      LOOP:  cpu time   22.0910: real time   22.2138

 eigenvalue-minimisations  :  6128
 total energy-change (2. order) : 0.2079301E+00  (-0.6110365E+00)
 number of electron     452.9999931 magnetization       6.6732175
 augmentation part      132.1916907 magnetization       5.5195443

 Broyden mixing:
  rms(total) = 0.81853E+00    rms(broyden)= 0.81732E+00
  rms(prec ) = 0.10590E+01
  weight for this iteration     100.00

 eigenvalues of (default mixing * dielectric matrix)
  average eigenvalue GAMMA=   0.6420
  1.4314  1.4314  0.5602  0.5602  0.4566  0.3969  0.1589  0.1403

 Free energy of the ion-electron system (eV)
  ---------------------------------------------------
  alpha Z        PSCENC =      1269.90711959
  Ewald energy   TEWEN  =    -29609.90600688
  -Hartree energ DENC   =    -22798.03973509
  -exchange      EXHF   =         0.00000000
  -V(xc)+E(xc)   XCENC  =      1663.83671803
  PAW double counting   =     63580.74460284   -66429.61350449
  entropy T*S    EENTRO =         0.00000000
  eigenvalues    EBANDS =     -4379.57706523
  atomic energy  EATOM  =     56403.09886247
  Solvation  Ediel_sol  =         0.00000000
  ---------------------------------------------------
  free energy    TOTEN  =      -299.54900877 eV

  energy without entropy =     -299.54900877  energy(sigma->0) =     -299.54900877


--------------------------------------------------------------------------------------------------------




--------------------------------------- Iteration      1(  14)  ---------------------------------------


    POTLOK:  cpu time    0.2989: real time    0.3008
    SETDIJ:  cpu time    0.0281: real time    0.0282
     EDDAV:  cpu time   20.7945: real time   20.9074
 BZINTS: Fermi energy:  6.935524;453.000000 electrons
         Band energy:***********;  BLOECHL correction: -0.443639
       DOS:  cpu time    0.0032: real time    0.0033
    CHARGE:  cpu time    0.6919: real time    0.6952
    MIXING:  cpu time    0.0080: real time    0.0081
    --------------------------------------------
      LOOP:  cpu time   21.8247: real time   21.9429

 eigenvalue-minimisations  :  6040
 total energy-change (2. order) : 0.4696133E-01  (-0.1947142E+00)
 number of electron     452.9999942 magnetization       5.1112755
 augmentation part      132.1658396 magnetization       4.1652342

 Broyden mixing:
  rms(total) = 0.57778E+00    rms(broyden)= 0.57739E+00
  rms(prec ) = 0.71383E+00
  weight for this iteration     100.00

 eigenvalues of (default mixing * dielectric matrix)
  average eigenvalue GAMMA=   0.6320
  1.5082  1.5082  0.6226  0.6226  0.4686  0.4686  0.1410  0.1606  0.1880

 Free energy of the ion-electron system (eV)
  ---------------------------------------------------
  alpha Z        PSCENC =      1269.90711959
  Ewald energy   TEWEN  =    -29609.90600688
  -Hartree energ DENC   =    -22800.31104573
  -exchange      EXHF   =         0.00000000
  -V(xc)+E(xc)   XCENC  =      1663.87958718
  PAW double counting   =     63501.14974936   -66349.52536079
  entropy T*S    EENTRO =         0.00000000
  eigenvalues    EBANDS =     -4377.79495263
  atomic energy  EATOM  =     56403.09886247
  Solvation  Ediel_sol  =         0.00000000
  ---------------------------------------------------
  free energy    TOTEN  =      -299.50204744 eV

  energy without entropy =     -299.50204744  energy(sigma->0) =     -299.50204744


--------------------------------------------------------------------------------------------------------




--------------------------------------- Iteration      1(  15)  ---------------------------------------


    POTLOK:  cpu time    0.3137: real time    0.3158
    SETDIJ:  cpu time    0.0261: real time    0.0262
     EDDAV:  cpu time   20.4684: real time   20.5769
 BZINTS: Fermi energy:  6.946194;453.000000 electrons
         Band energy:***********;  BLOECHL correction: -0.498782
       DOS:  cpu time    0.0031: real time    0.0031
    CHARGE:  cpu time    0.6921: real time    0.6953
    MIXING:  cpu time    0.0089: real time    0.0090
    --------------------------------------------
      LOOP:  cpu time   21.5122: real time   21.6263

 eigenvalue-minimisations  :  5912
 total energy-change (2. order) :-0.4618050E-01  (-0.3694584E-01)
 number of electron     452.9999938 magnetization       2.7450400
 augmentation part      132.1977736 magnetization       1.9192198

 Broyden mixing:
  rms(total) = 0.35498E+00    rms(broyden)= 0.35492E+00
  rms(prec ) = 0.39492E+00
  weight for this iteration     100.00

 eigenvalues of (default mixing * dielectric matrix)
  average eigenvalue GAMMA=   0.7261
  1.7261  1.7261  0.8907  0.8907  0.5139  0.5139  0.5183  0.1406  0.1544  0.1860

 Free energy of the ion-electron system (eV)
  ---------------------------------------------------
  alpha Z        PSCENC =      1269.90711959
  Ewald energy   TEWEN  =    -29609.90600688
  -Hartree energ DENC   =    -22804.67695339
  -exchange      EXHF   =         0.00000000
  -V(xc)+E(xc)   XCENC  =      1663.93626655
  PAW double counting   =     63398.12856786   -66244.99131764
  entropy T*S    EENTRO =         0.00000000
  eigenvalues    EBANDS =     -4375.04476650
  atomic energy  EATOM  =     56403.09886247
  Solvation  Ediel_sol  =         0.00000000
  ---------------------------------------------------
  free energy    TOTEN  =      -299.54822794 eV

  energy without entropy =     -299.54822794  energy(sigma->0) =     -299.54822794


--------------------------------------------------------------------------------------------------------




--------------------------------------- Iteration      1(  16)  ---------------------------------------


    POTLOK:  cpu time    0.3092: real time    0.3112
    SETDIJ:  cpu time    0.0268: real time    0.0269
     EDDAV:  cpu time   20.5610: real time   20.6777
 BZINTS: Fermi energy:  6.950303;453.000000 electrons
         Band energy:***********;  BLOECHL correction: -0.480086
       DOS:  cpu time    0.0033: real time    0.0033
    CHARGE:  cpu time    0.6884: real time    0.6919
    MIXING:  cpu time    0.0093: real time    0.0093
    --------------------------------------------
      LOOP:  cpu time   21.5980: real time   21.7203

 eigenvalue-minimisations  :  5928
 total energy-change (2. order) :-0.1333662E+00  (-0.3814831E-01)
 number of electron     452.9999936 magnetization       2.1094299
 augmentation part      132.1384018 magnetization       1.6015869

 Broyden mixing:
  rms(total) = 0.35077E+00    rms(broyden)= 0.35066E+00
  rms(prec ) = 0.49202E+00
  weight for this iteration     100.00

 eigenvalues of (default mixing * dielectric matrix)
  average eigenvalue GAMMA=   0.7207
  1.8176  1.8176  0.9372  0.9372  0.5208  0.5208  0.4484  0.4484  0.1406  0.1546
  0.1851

 Free energy of the ion-electron system (eV)
  ---------------------------------------------------
  alpha Z        PSCENC =      1269.90711959
  Ewald energy   TEWEN  =    -29609.90600688
  -Hartree energ DENC   =    -22814.13605745
  -exchange      EXHF   =         0.00000000
  -V(xc)+E(xc)   XCENC  =      1664.11086336
  PAW double counting   =     63274.36775900   -66118.79463282
  entropy T*S    EENTRO =         0.00000000
  eigenvalues    EBANDS =     -4368.32950140
  atomic energy  EATOM  =     56403.09886247
  Solvation  Ediel_sol  =         0.00000000
  ---------------------------------------------------
  free energy    TOTEN  =      -299.68159413 eV

  energy without entropy =     -299.68159413  energy(sigma->0) =     -299.68159413


--------------------------------------------------------------------------------------------------------




--------------------------------------- Iteration      1(  17)  ---------------------------------------


    POTLOK:  cpu time    0.3038: real time    0.3058
    SETDIJ:  cpu time    0.0281: real time    0.0282
     EDDAV:  cpu time   20.4090: real time   20.5185
 BZINTS: Fermi energy:  6.956093;453.000000 electrons
         Band energy:***********;  BLOECHL correction: -0.495543
       DOS:  cpu time    0.0028: real time    0.0028
    CHARGE:  cpu time    0.6937: real time    0.6968
    MIXING:  cpu time    0.0099: real time    0.0100
    --------------------------------------------
      LOOP:  cpu time   21.4474: real time   21.5621

 eigenvalue-minimisations  :  5880
 total energy-change (2. order) : 0.4535412E-01  (-0.2511068E-01)
 number of electron     452.9999938 magnetization       1.5780505
 augmentation part      132.1050327 magnetization       1.1514775

 Broyden mixing:
  rms(total) = 0.18230E+00    rms(broyden)= 0.18211E+00
  rms(prec ) = 0.24718E+00
  weight for this iteration     100.00

 eigenvalues of (default mixing * dielectric matrix)
  average eigenvalue GAMMA=   0.7348
  2.1606  1.5446  1.0989  1.0989  0.6076  0.6076  0.5087  0.5087  0.1406  0.1544
  0.1840  0.2031

 Free energy of the ion-electron system (eV)
  ---------------------------------------------------
  alpha Z        PSCENC =      1269.90711959
  Ewald energy   TEWEN  =    -29609.90600688
  -Hartree energ DENC   =    -22816.95784477
  -exchange      EXHF   =         0.00000000
  -V(xc)+E(xc)   XCENC  =      1664.17304231
  PAW double counting   =     63263.88691832   -66107.82750942
  entropy T*S    EENTRO =         0.00000000
  eigenvalues    EBANDS =     -4366.01082162
  atomic energy  EATOM  =     56403.09886247
  Solvation  Ediel_sol  =         0.00000000
  ---------------------------------------------------
  free energy    TOTEN  =      -299.63624001 eV

  energy without entropy =     -299.63624001  energy(sigma->0) =     -299.63624001


--------------------------------------------------------------------------------------------------------




--------------------------------------- Iteration      1(  18)  ---------------------------------------


    POTLOK:  cpu time    0.3155: real time    0.3173
    SETDIJ:  cpu time    0.0268: real time    0.0269
     EDDAV:  cpu time   20.1539: real time   20.2612
 BZINTS: Fermi energy:  6.965278;453.000000 electrons
         Band energy:***********;  BLOECHL correction: -0.503064
       DOS:  cpu time    0.0032: real time    0.0032
    CHARGE:  cpu time    0.6980: real time    0.7014
    MIXING:  cpu time    0.0099: real time    0.0100
    --------------------------------------------
      LOOP:  cpu time   21.2073: real time   21.3199

 eigenvalue-minimisations  :  5800
 total energy-change (2. order) : 0.1408581E-02  (-0.4666808E-02)
 number of electron     452.9999937 magnetization       1.2633756
 augmentation part      132.0290251 magnetization       0.9192621

 Broyden mixing:
  rms(total) = 0.79822E-01    rms(broyden)= 0.79761E-01
  rms(prec ) = 0.91009E-01
  weight for this iteration     100.00

 eigenvalues of (default mixing * dielectric matrix)
  average eigenvalue GAMMA=   0.7738
  2.5137  1.4551  1.4551  1.0317  0.6904  0.6904  0.5126  0.5126  0.5231  0.1406
  0.1544  0.1836  0.1961

 Free energy of the ion-electron system (eV)
  ---------------------------------------------------
  alpha Z        PSCENC =      1269.90711959
  Ewald energy   TEWEN  =    -29609.90600688
  -Hartree energ DENC   =    -22819.65588138
  -exchange      EXHF   =         0.00000000
  -V(xc)+E(xc)   XCENC  =      1664.23173419
  PAW double counting   =     63295.59917522   -66139.34011804
  entropy T*S    EENTRO =         0.00000000
  eigenvalues    EBANDS =     -4363.56971660
  atomic energy  EATOM  =     56403.09886247
  Solvation  Ediel_sol  =         0.00000000
  ---------------------------------------------------
  free energy    TOTEN  =      -299.63483143 eV

  energy without entropy =     -299.63483143  energy(sigma->0) =     -299.63483143


--------------------------------------------------------------------------------------------------------




--------------------------------------- Iteration      1(  19)  ---------------------------------------


    POTLOK:  cpu time    0.2969: real time    0.2984
    SETDIJ:  cpu time    0.0265: real time    0.0266
     EDDAV:  cpu time   20.4466: real time   20.5584
 BZINTS: Fermi energy:  6.966557;453.000000 electrons
         Band energy:***********;  BLOECHL correction: -0.504624
       DOS:  cpu time    0.0031: real time    0.0031
    CHARGE:  cpu time    0.7106: real time    0.7142
    MIXING:  cpu time    0.0112: real time    0.0113
    --------------------------------------------
      LOOP:  cpu time   21.4948: real time   21.6119

 eigenvalue-minimisations  :  5896
 total energy-change (2. order) :-0.4985678E-02  (-0.9459730E-03)
 number of electron     452.9999938 magnetization       1.0039996
 augmentation part      132.0188326 magnetization       0.7129392

 Broyden mixing:
  rms(total) = 0.56832E-01    rms(broyden)= 0.56789E-01
  rms(prec ) = 0.65003E-01
  weight for this iteration     100.00

 eigenvalues of (default mixing * dielectric matrix)
  average eigenvalue GAMMA=   0.8301
  2.7820  1.6488  1.6488  0.9447  0.8608  0.8608  0.5843  0.5843  0.5157  0.5157
  0.1406  0.1544  0.1839  0.1961

 Free energy of the ion-electron system (eV)
  ---------------------------------------------------
  alpha Z        PSCENC =      1269.90711959
  Ewald energy   TEWEN  =    -29609.90600688
  -Hartree energ DENC   =    -22820.15642269
  -exchange      EXHF   =         0.00000000
  -V(xc)+E(xc)   XCENC  =      1664.24467511
  PAW double counting   =     63300.22744829   -66143.80623187
  entropy T*S    EENTRO =         0.00000000
  eigenvalues    EBANDS =     -4363.24926113
  atomic energy  EATOM  =     56403.09886247
  Solvation  Ediel_sol  =         0.00000000
  ---------------------------------------------------
  free energy    TOTEN  =      -299.63981711 eV

  energy without entropy =     -299.63981711  energy(sigma->0) =     -299.63981711


--------------------------------------------------------------------------------------------------------




--------------------------------------- Iteration      1(  20)  ---------------------------------------


    POTLOK:  cpu time    0.3096: real time    0.3119
    SETDIJ:  cpu time    0.0268: real time    0.0269
     EDDAV:  cpu time   21.8655: real time   21.9843
 BZINTS: Fermi energy:  6.968499;453.000000 electrons
         Band energy:***********;  BLOECHL correction: -0.506704
       DOS:  cpu time    0.0032: real time    0.0032
    CHARGE:  cpu time    0.7128: real time    0.7165
    MIXING:  cpu time    0.0115: real time    0.0116
    --------------------------------------------
      LOOP:  cpu time   22.9294: real time   23.0544

 eigenvalue-minimisations  :  6448
 total energy-change (2. order) :-0.3911279E-02  (-0.2359290E-03)
 number of electron     452.9999938 magnetization       0.7979715
 augmentation part      132.0073216 magnetization       0.5643822

 Broyden mixing:
  rms(total) = 0.38033E-01    rms(broyden)= 0.37949E-01
  rms(prec ) = 0.43754E-01
  weight for this iteration     100.00

 eigenvalues of (default mixing * dielectric matrix)
  average eigenvalue GAMMA=   0.9077
  3.2170  1.8302  1.8302  1.2775  0.9708  0.9708  0.6367  0.6367  0.5125  0.5125
  0.5458  0.1406  0.1544  0.1839  0.1960

 Free energy of the ion-electron system (eV)
  ---------------------------------------------------
  alpha Z        PSCENC =      1269.90711959
  Ewald energy   TEWEN  =    -29609.90600688
  -Hartree energ DENC   =    -22820.70304198
  -exchange      EXHF   =         0.00000000
  -V(xc)+E(xc)   XCENC  =      1664.26796707
  PAW double counting   =     63283.82235293   -66127.37990911
  entropy T*S    EENTRO =         0.00000000
  eigenvalues    EBANDS =     -4362.75107248
  atomic energy  EATOM  =     56403.09886247
  Solvation  Ediel_sol  =         0.00000000
  ---------------------------------------------------
  free energy    TOTEN  =      -299.64372839 eV

  energy without entropy =     -299.64372839  energy(sigma->0) =     -299.64372839


--------------------------------------------------------------------------------------------------------




--------------------------------------- Iteration      1(  21)  ---------------------------------------


    POTLOK:  cpu time    0.3166: real time    0.3185
    SETDIJ:  cpu time    0.0273: real time    0.0274
     EDDAV:  cpu time   22.7912: real time   22.9153
 BZINTS: Fermi energy:  6.970179;453.000000 electrons
         Band energy:***********;  BLOECHL correction: -0.508155
       DOS:  cpu time    0.0032: real time    0.0032
    CHARGE:  cpu time    0.7088: real time    0.7123
    MIXING:  cpu time    0.0125: real time    0.0126
    --------------------------------------------
      LOOP:  cpu time   23.8595: real time   23.9894

 eigenvalue-minimisations  :  6784
 total energy-change (2. order) :-0.2350538E-02  (-0.1251180E-03)
 number of electron     452.9999938 magnetization       0.6347361
 augmentation part      131.9946944 magnetization       0.4442817

 Broyden mixing:
  rms(total) = 0.22991E-01    rms(broyden)= 0.22890E-01
  rms(prec ) = 0.25649E-01
  weight for this iteration     100.00

 eigenvalues of (default mixing * dielectric matrix)
  average eigenvalue GAMMA=   0.9443
  3.3978  2.0096  2.0096  1.1915  1.1915  0.9636  0.7129  0.7129  0.5156  0.5156
  0.6069  0.6069  0.1406  0.1544  0.1839  0.1960

 Free energy of the ion-electron system (eV)
  ---------------------------------------------------
[...]
 -----------------------------------------------------------------------------------
      0.01067      0.00068      0.00068         0.033092      0.003814      0.003814
      2.37957      7.19719      7.19719         0.001891     -0.005212     -0.005212
      4.80068      0.00068      4.79070        -0.003814      0.003814     -0.033092
      4.80068      4.79070      0.00068        -0.003814     -0.033092      0.003814
      7.20689      2.42179      7.19719         0.005212     -0.001891     -0.005212
      7.20689      7.19719      2.42179         0.005212     -0.005212     -0.001891
      1.42530      3.37606      3.37606        -0.358868      0.358868      0.358868
      1.20546      1.18428      6.01804         0.001503     -0.016532     -0.030354
      8.37983      8.38730      6.02426         0.000862     -0.008955     -0.000862
      3.62365      1.17771      8.42202         0.004980     -0.004980     -0.014972
      6.00431      8.39978      8.39978         0.005813     -0.005813     -0.005813
      1.21706      3.58430      8.37291        -0.017599      0.017599     -0.000201
      8.37983      6.02426      8.38730         0.000862     -0.000862     -0.008955
      3.61709      3.59590      6.01804         0.016532     -0.001503     -0.030354
      6.01679      6.02426      6.02426         0.008955     -0.000862     -0.000862
      3.62365      8.42202      1.17771         0.004980     -0.014972     -0.004980
      3.61709      6.01804      3.59590         0.016532     -0.030354     -0.001503
      1.20546      6.01804      1.18428         0.001503     -0.030354     -0.016532
      1.21706      8.37291      3.58430        -0.017599     -0.000201      0.017599
      8.38605      3.59590      1.18428         0.030354     -0.001503     -0.016532
      8.38605      1.18428      3.59590         0.030354     -0.016532     -0.001503
      5.98207      1.17771      1.17771         0.014972     -0.004980     -0.004980
      6.03118      3.58430      3.58430         0.000201      0.017599      0.017599
      1.02805      1.09990      3.77332         0.031403      0.063747     -0.031403
      6.12869      8.27540      6.13636        -0.000173      0.000173     -0.008811
      3.75189      1.04947      1.04947         0.019727     -0.019727     -0.019727
      8.26772      8.27540      8.27540         0.008811      0.000173      0.000173
      1.02805      3.77332      1.09990         0.031403     -0.031403      0.063747
      6.12869      6.13636      8.27540        -0.000173     -0.008811      0.000173
      3.70147      3.77332      3.77332        -0.063747     -0.031403     -0.031403
      8.24415      6.15994      6.15994         0.009358     -0.009358     -0.009358
      1.05656      5.86024      8.50695        -0.010166     -0.000844     -0.001747
      3.47473      8.27980      3.45011        -0.008135     -0.019376      0.003090
      1.05656      8.50695      5.86024        -0.010166     -0.001747     -0.000844
      3.47798      6.12910      1.32338         0.003030     -0.023630     -0.003030
      3.73766      8.52639      8.52639         0.007077     -0.005918     -0.005918
      1.37361      6.04218      3.42775         0.012744     -0.075951     -0.012744
      3.72161      5.87855      5.87855         0.010848     -0.009618     -0.009618
      1.35126      8.27980      1.32663        -0.003090     -0.019376      0.008135
      5.87770      1.06371      8.52639         0.005918     -0.007077     -0.005918
      3.47798      1.32338      6.12910         0.003030     -0.003030     -0.023630
      8.54385      3.74480      8.50695         0.000844      0.010166     -0.001747
      1.37361      3.42775      6.04218         0.012744     -0.012744     -0.075951
      8.52554      1.07975      5.87855         0.009618     -0.010848     -0.009618
      1.35126      1.32663      8.27980        -0.003090      0.008135     -0.019376
      5.89714      3.74480      5.86024         0.001747      0.010166     -0.000844
      3.47473      3.45011      8.27980        -0.008135      0.003090     -0.019376
      5.89714      5.86024      3.74480         0.001747     -0.000844      0.010166
      8.52554      5.87855      1.07975         0.009618     -0.009618     -0.010848
      5.87770      8.52639      1.06371         0.005918     -0.005918     -0.007077
      8.54385      8.50695      3.74480         0.000844     -0.001747      0.010166
      8.36191      3.42775      3.42775         0.075951     -0.012744     -0.012744
      8.27499      1.32338      1.32338         0.023630     -0.003030     -0.003030
      6.12429      1.32663      3.45011         0.019376      0.008135      0.003090
      6.12429      3.45011      1.32663         0.019376      0.003090      0.008135
 -----------------------------------------------------------------------------------
    total drift:                               -0.003797      0.003797      0.003796


--------------------------------------------------------------------------------------------------------



  FREE ENERGIE OF THE ION-ELECTRON SYSTEM (eV)
  ---------------------------------------------------
  free  energy   TOTEN  =      -299.90223522 eV

  energy  without entropy=     -299.90223522  energy(sigma->0) =     -299.90223522
 
 d Force = 0.2150341E-02[ 0.174E-02, 0.256E-02]  d Energy = 0.1654406E-02 0.496E-03
 d Force = 0.3086432E+00[ 0.304E+00, 0.313E+00]  d Ewald  = 0.3086462E+00-0.298E-05


--------------------------------------------------------------------------------------------------------


    POTLOK:  cpu time    0.3170: real time    0.3186


--------------------------------------------------------------------------------------------------------


  energy of chain is (eV)         0.000000 for this image         0.000000
  tangential force (eV/A)         0.662828
  left and right image   0.429913  0.426653 A
 TANGENT                                        CHAIN-FORCE (eV/Angst)
 -----------------------------------------------------------------------------------
      0.01781      0.01293      0.01293        -0.011806     -0.008569     -0.008569
     -0.00361     -0.00756     -0.00756         0.002390      0.005012      0.005012
     -0.01293      0.01293     -0.01781         0.008569     -0.008569      0.011806
     -0.01293     -0.01781      0.01293         0.008569      0.011806     -0.008569
      0.00756      0.00361     -0.00756        -0.005012     -0.002390      0.005012
      0.00756     -0.00756      0.00361        -0.005012      0.005012     -0.002390
     -0.54810      0.54810      0.54810         0.363296     -0.363296     -0.363296
     -0.00906      0.00164     -0.01761         0.006004     -0.001088      0.011673
     -0.00064      0.00092      0.00064         0.000426     -0.000610     -0.000426
      0.00598     -0.00598     -0.00768        -0.003965      0.003965      0.005088
     -0.00091      0.00091      0.00091         0.000605     -0.000605     -0.000605
     -0.02392      0.02392      0.04663         0.015856     -0.015856     -0.030911
     -0.00064      0.00064      0.00092         0.000426     -0.000426     -0.000610
     -0.00164      0.00906     -0.01761         0.001088     -0.006004      0.011673
     -0.00092      0.00064      0.00064         0.000610     -0.000426     -0.000426
      0.00598     -0.00768     -0.00598        -0.003965      0.005088      0.003965
     -0.00164     -0.01761      0.00906         0.001088      0.011673     -0.006004
     -0.00906     -0.01761      0.00164         0.006004      0.011673     -0.001088
     -0.02392      0.04663      0.02392         0.015856     -0.030911     -0.015856
      0.01761      0.00906      0.00164        -0.011673     -0.006004     -0.001088
      0.01761      0.00164      0.00906        -0.011673     -0.001088     -0.006004
      0.00768     -0.00598     -0.00598        -0.005088      0.003965      0.003965
     -0.04663      0.02392      0.02392         0.030911     -0.015856     -0.015856
      0.01566      0.13913     -0.01566        -0.010378     -0.092217      0.010378
     -0.00484      0.00484     -0.00176         0.003209     -0.003209      0.001163
      0.01950     -0.01950     -0.01950        -0.012926      0.012926      0.012926
      0.00176      0.00484      0.00484        -0.001163     -0.003209     -0.003209
      0.01566     -0.01566      0.13913        -0.010378      0.010378     -0.092217
     -0.00484     -0.00176      0.00484         0.003209      0.001163     -0.003209
     -0.13913     -0.01566     -0.01566         0.092217      0.010378      0.010378
      0.00140     -0.00140     -0.00140        -0.000926      0.000926      0.000926
     -0.00101     -0.00138      0.02408         0.000671      0.000917     -0.015962
     -0.01594      0.00243      0.00745         0.010567     -0.001613     -0.004940
     -0.00101      0.02408     -0.00138         0.000671     -0.015962      0.000917
     -0.00777     -0.01126      0.00777         0.005150      0.007461     -0.005150
      0.00106     -0.00383     -0.00383        -0.000704      0.002537      0.002537
     -0.00708     -0.07227      0.00708         0.004691      0.047901     -0.004691
      0.00295     -0.01034     -0.01034        -0.001958      0.006853      0.006853
     -0.00745      0.00243      0.01594         0.004940     -0.001613     -0.010567
      0.00383     -0.00106     -0.00383        -0.002537      0.000704      0.002537
     -0.00777      0.00777     -0.01126         0.005150     -0.005150      0.007461
      0.00138      0.00101      0.02408        -0.000917     -0.000671     -0.015962
     -0.00708      0.00708     -0.07227         0.004691     -0.004691      0.047901
      0.01034     -0.00295     -0.01034        -0.006853      0.001958      0.006853
     -0.00745      0.01594      0.00243         0.004940     -0.010567     -0.001613
     -0.02408      0.00101     -0.00138         0.015962     -0.000671      0.000917
     -0.01594      0.00745      0.00243         0.010567     -0.004940     -0.001613
     -0.02408     -0.00138      0.00101         0.015962      0.000917     -0.000671
      0.01034     -0.01034     -0.00295        -0.006853      0.006853      0.001958
      0.00383     -0.00383     -0.00106        -0.002537      0.002537      0.000704
      0.00138      0.02408      0.00101        -0.000917     -0.015962     -0.000671
      0.07227      0.00708      0.00708        -0.047901     -0.004691     -0.004691
      0.01126      0.00777      0.00777        -0.007461     -0.005150     -0.005150
     -0.00243      0.01594      0.00745         0.001613     -0.010567     -0.004940
     -0.00243      0.00745      0.01594         0.001613     -0.004940     -0.010567
 -----------------------------------------------------------------------------------
 CHAIN + TOTAL  (eV/Angst)
 ----------------------------------------------
      0.02129     -0.00475     -0.00475
      0.00428     -0.00020     -0.00020
      0.00475     -0.00475     -0.02129
      0.00475     -0.02129     -0.00475
      0.00020     -0.00428     -0.00020
      0.00020     -0.00020     -0.00428
      0.00443     -0.00443     -0.00443
      0.00751     -0.01762     -0.01868
      0.00129     -0.00957     -0.00129
      0.00101     -0.00101     -0.00988
      0.00642     -0.00642     -0.00642
     -0.00174      0.00174     -0.03111
      0.00129     -0.00129     -0.00957
      0.01762     -0.00751     -0.01868
      0.00957     -0.00129     -0.00129
      0.00101     -0.00988     -0.00101
      0.01762     -0.01868     -0.00751
      0.00751     -0.01868     -0.01762
     -0.00174     -0.03111      0.00174
      0.01868     -0.00751     -0.01762
      0.01868     -0.01762     -0.00751
      0.00988     -0.00101     -0.00101
      0.03111      0.00174      0.00174
      0.02102     -0.02847     -0.02102
      0.00304     -0.00304     -0.00765
      0.00680     -0.00680     -0.00680
      0.00765     -0.00304     -0.00304
      0.02102     -0.02102     -0.02847
      0.00304     -0.00765     -0.00304
      0.02847     -0.02102     -0.02102
      0.00843     -0.00843     -0.00843
     -0.00950      0.00007     -0.01771
      0.00243     -0.02099     -0.00185
     -0.00950     -0.01771      0.00007
      0.00818     -0.01617     -0.00818
      0.00637     -0.00338     -0.00338
      0.01744     -0.02805     -0.01744
      0.00889     -0.00276     -0.00276
      0.00185     -0.02099     -0.00243
      0.00338     -0.00637     -0.00338
      0.00818     -0.00818     -0.01617
     -0.00007      0.00950     -0.01771
      0.01744     -0.01744     -0.02805
      0.00276     -0.00889     -0.00276
      0.00185     -0.00243     -0.02099
      0.01771      0.00950      0.00007
      0.00243     -0.00185     -0.02099
      0.01771      0.00007      0.00950
      0.00276     -0.00276     -0.00889
      0.00338     -0.00338     -0.00637
     -0.00007     -0.01771      0.00950
      0.02805     -0.01744     -0.01744
      0.01617     -0.00818     -0.00818
      0.02099     -0.00243     -0.00185
      0.02099     -0.00185     -0.00243
 ----------------------------------------------
 Quasi-Newton relaxation of ions (Broydens 2nd method)
  g(Force)  = 0.390E-02   g(Stress)= 0.000E+00

 retain information from N=  2 steps
 eigenvalues of (default step * inverse Hessian matrix)
  average eigenvalue of G=   7.2050
 eigenvalue spectrum of G is  7.2050  7.2050


--------------------------------------------------------------------------------------------------------


  
 reached required accuracy - stopping structural energy minimisation
     LOOP+:  cpu time  246.7825: real time  248.1172
    4ORBIT:  cpu time    0.0000: real time    0.0000
 


 total charge     
 
# of ion       s       p       d       tot
------------------------------------------
    1        0.387   0.360   0.000   0.747
    2        0.387   0.362   0.000   0.749
    3        0.386   0.361   0.000   0.746
    4        0.386   0.361   0.000   0.747
    5        0.386   0.363   0.000   0.749
    6        0.386   0.362   0.000   0.749
    7        0.407   0.289   0.000   0.696
    8        0.421   6.530   7.371  14.322
    9        0.420   6.523   7.403  14.346
   10        0.421   6.525   7.385  14.331
   11        0.414   6.515   7.433  14.362
   12        0.400   6.469   7.469  14.338
   13        0.420   6.524   7.379  14.322
   14        0.420   6.529   7.436  14.385
   15        0.419   6.523   7.472  14.414
   16        0.421   6.525   7.406  14.352
   17        0.420   6.529   7.454  14.403
   18        0.421   6.530   7.361  14.312
   19        0.399   6.473   7.420  14.292
   20        0.421   6.529   7.410  14.360
   21        0.420   6.529   7.438  14.387
   22        0.420   6.524   7.470  14.414
   23        0.397   6.480   7.359  14.236
   24        1.338   2.364   0.000   3.702
   25        1.327   2.388   0.000   3.715
   26        1.357   2.303   0.000   3.660
   27        1.326   2.381   0.000   3.707
   28        1.339   2.358   0.000   3.697
   29        1.326   2.386   0.000   3.712
   30        1.335   2.377   0.000   3.712
   31        1.359   2.297   0.000   3.657
   32        1.327   2.388   0.000   3.715
   33        1.326   2.389   0.000   3.714
   34        1.327   2.388   0.000   3.715
   35        1.329   2.386   0.000   3.715
   36        1.328   2.379   0.000   3.707
   37        1.350   2.312   0.000   3.662
   38        1.330   2.387   0.000   3.716
   39        1.326   2.386   0.000   3.712
   40        1.328   2.383   0.000   3.711
   41        1.328   2.386   0.000   3.713
   42        1.327   2.388   0.000   3.714
   43        1.350   2.313   0.000   3.663
   44        1.329   2.386   0.000   3.715
   45        1.326   2.387   0.000   3.713
   46        1.329   2.391   0.000   3.719
   47        1.326   2.389   0.000   3.715
   48        1.329   2.391   0.000   3.720
   49        1.327   2.385   0.000   3.712
   50        1.329   2.385   0.000   3.714
   51        1.327   2.387   0.000   3.715
   52        1.347   2.322   0.000   3.669
   53        1.330   2.384   0.000   3.714
   54        1.327   2.391   0.000   3.718
   55        1.327   2.390   0.000   3.717
--------------------------------------------------
tot         52.014 182.642 118.664 353.320
 


 magnetization (x)
 
# of ion       s       p       d       tot
------------------------------------------
    1        0.000  -0.000   0.000   0.000
    2        0.000   0.000   0.000   0.000
    3       -0.000   0.000   0.000   0.000
    4       -0.000   0.000   0.000   0.000
    5        0.000  -0.000   0.000   0.000
    6       -0.000   0.000   0.000   0.000
    7        0.000   0.000   0.000   0.000
    8       -0.000  -0.000   0.000   0.000
    9       -0.000  -0.000   0.000   0.000
   10        0.000   0.000  -0.000  -0.000
   11        0.000   0.000   0.002   0.002
   12        0.000   0.000  -0.000  -0.000
   13        0.000   0.000  -0.001  -0.001
   14        0.000   0.000  -0.000  -0.000
   15        0.000   0.000  -0.000  -0.000
   16       -0.000  -0.000  -0.000  -0.000
   17       -0.000   0.000   0.000   0.000
   18        0.000   0.000   0.000   0.000
   19        0.000   0.000   0.004   0.004
   20        0.000   0.000  -0.000  -0.000
   21       -0.000  -0.000  -0.000  -0.000
   22        0.000   0.000   0.000   0.000
   23       -0.000   0.000   0.001   0.001
   24        0.000   0.000   0.000   0.000
   25        0.000   0.000   0.000   0.000
   26        0.000   0.000   0.000   0.000
   27        0.000  -0.000   0.000  -0.000
   28       -0.000  -0.000   0.000  -0.000
   29       -0.000   0.000   0.000  -0.000
   30       -0.000  -0.000   0.000  -0.000
   31       -0.000  -0.000   0.000  -0.000
   32        0.000  -0.000   0.000  -0.000
   33        0.000   0.000   0.000   0.000
   34       -0.000   0.000   0.000   0.000
   35       -0.000   0.000   0.000  -0.000
   36       -0.000  -0.000   0.000  -0.000
   37        0.000   0.000   0.000   0.000
   38       -0.000  -0.000   0.000  -0.000
   39        0.000   0.000   0.000   0.000
   40        0.000  -0.000   0.000  -0.000
   41        0.000  -0.000   0.000   0.000
   42        0.000  -0.000   0.000  -0.000
   43       -0.000  -0.000   0.000  -0.000
   44       -0.000   0.000   0.000  -0.000
   45        0.000  -0.000   0.000  -0.000
   46        0.000  -0.000   0.000  -0.000
   47       -0.000  -0.000   0.000  -0.000
   48        0.000  -0.000   0.000   0.000
   49        0.000  -0.000   0.000   0.000
   50        0.000   0.000   0.000   0.000
   51       -0.000   0.000   0.000   0.000
   52       -0.000  -0.000   0.000  -0.000
   53       -0.000  -0.000   0.000  -0.000
   54        0.000  -0.000   0.000  -0.000
   55       -0.000   0.000   0.000   0.000
--------------------------------------------------
tot          0.000   0.000   0.006   0.006
 
 BZINTS: Fermi energy:  6.961784;453.000000 electrons
         Band energy:***********;  BLOECHL correction: -0.482734

 total amount of memory used by VASP MPI-rank0   154730. kBytes
=======================================================================

   base      :      30000. kBytes
   nonlr-proj:       5461. kBytes
   fftplans  :       9381. kBytes
   grid      :      24648. kBytes
   one-center:        155. kBytes
   wavefun   :      85085. kBytes
 
  
  
 General timing and accounting informations for this job:
 ========================================================
  
                  Total CPU time used (sec):     2724.317
                            User time (sec):     2722.328
                          System time (sec):        1.988
                         Elapsed time (sec):     2739.743
  
                   Maximum memory used (kb):      396808.
                   Average memory used (kb):           0.
  
                          Minor page faults:       580551
                          Major page faults:           54
                 Voluntary context switches:        27538
