
     Program PWSCF v.5.1rc2 (svn rev. 11289) starts on  4Mar2018 at 23:15:13 

     This program is part of the open-source Quantum ESPRESSO suite
     for quantum simulation of materials; please cite
         "P. Giannozzi et al., J. Phys.:Condens. Matter 21 395502 (2009);
          URL http://www.quantum-espresso.org", 
     in publications or presentations arising from this work. More details at
     http://www.quantum-espresso.org/quote

     Parallel version (MPI), running on     8 processors
     R & G space division:  proc/nbgrp/npool/nimage =       8
     Reading input from pw.inp
     Message from routine read_cards :
     DEPRECATED: no units specified in CELL_PARAMETERS card

     Current dimensions of program PWSCF are:
     Max number of different atomic species (ntypx) = 10
     Max number of k-points (npk) =  40000
     Max angular momentum in pseudopotentials (lmaxx) =  3
     Presently no symmetry can be used with electric field


     **************************************************************************
     Initializing libbeef V0.1.1 with the BEEF-vdW functional.
     Citation: Wellendorff et al., PRB 85, 235149 (2012).
     **************************************************************************


     IMPORTANT: XC functional enforced from input :
     Exchange-correlation      = BEEF ( 1  4 27 13 2)
     Any further DFT definition will be discarded
     Please, verify this is what you really want

               file Cu.UPF: wavefunction(s)  3D renormalized

     Subspace diagonalization in iterative solution of the eigenvalue problem:
     a serial algorithm will be used

 
     Parallelization info
     --------------------
     sticks:   dense  smooth     PW     G-vecs:    dense   smooth      PW
     Min         648     261     72               142416    36039    5292
     Max         649     262     73               142425    36072    5303
     Sum        5191    2091    583              1139367   288467   42387
 


     bravais-lattice index     =            0
     lattice parameter (alat)  =       1.8897  a.u.
     unit-cell volume          =    9578.9423 (a.u.)^3
     number of atoms/cell      =           41
     number of atomic types    =            5
     number of electrons       =       410.00
     number of Kohn-Sham states=          215
     kinetic-energy cutoff     =      36.7493  Ry
     charge density cutoff     =     367.4932  Ry
     convergence threshold     =      7.3E-06
     mixing beta               =       0.1000
     number of iterations used =           10  local-TF  mixing
     Exchange-correlation      = BEEF ( 1  4 27 13 2)
     nstep                     =           50


     celldm(1)=   1.889726  celldm(2)=   0.000000  celldm(3)=   0.000000
     celldm(4)=   0.000000  celldm(5)=   0.000000  celldm(6)=   0.000000

     crystal axes: (cart. coord. in units of alat)
               a(1) = (   7.806467   0.000000   0.000000 )  
               a(2) = (   0.000000   6.373953   0.000000 )  
               a(3) = (   0.000000   0.000000  28.527096 )  

     reciprocal axes: (cart. coord. in units 2 pi/alat)
               b(1) = (  0.128099  0.000000  0.000000 )  
               b(2) = (  0.000000  0.156889  0.000000 )  
               b(3) = (  0.000000  0.000000  0.035054 )  


     PseudoPot. # 1 for Zn read from file:
     /nfs/slac/g/suncatfs/sw/external/esp-psp/v2/Zn.UPF
     MD5 check sum: 8a117cd81793830d6ad9bd6443d05479
     Pseudo is Ultrasoft, Zval = 12.0
     Generated by new atomic code, or converted to UPF format
     Using radial grid of  869 points,  6 beta functions with: 
                l(1) =   0
                l(2) =   0
                l(3) =   1
                l(4) =   1
                l(5) =   2
                l(6) =   2
     Q(r) pseudized with  8 coefficients,  rinner =    0.800   0.800   0.800
                                                       0.800   0.800

     PseudoPot. # 2 for Cu read from file:
     /nfs/slac/g/suncatfs/sw/external/esp-psp/v2/Cu.UPF
     MD5 check sum: 1265fa589247fc99ea3a830f142ff47f
     Pseudo is Ultrasoft + core correction, Zval = 11.0
     Generated using "atomic" code by A. Dal Corso  v.5.0.2 svn rev. 9415
     Using radial grid of 1199 points,  6 beta functions with: 
                l(1) =   0
                l(2) =   0
                l(3) =   1
                l(4) =   1
                l(5) =   2
                l(6) =   2
     Q(r) pseudized with 0 coefficients 


     PseudoPot. # 3 for  O read from file:
     /nfs/slac/g/suncatfs/sw/external/esp-psp/v2/O.UPF
     MD5 check sum: e057bbcf3229fb5d8c36c0c92f9568b4
     Pseudo is Ultrasoft + core correction, Zval =  6.0
     Generated using "atomic" code by A. Dal Corso  v.5.0.2 svn rev. 9415
     Using radial grid of 1095 points,  4 beta functions with: 
                l(1) =   0
                l(2) =   0
                l(3) =   1
                l(4) =   1
     Q(r) pseudized with 0 coefficients 


     PseudoPot. # 4 for  C read from file:
     /nfs/slac/g/suncatfs/sw/external/esp-psp/v2/C.UPF
     MD5 check sum: ab446d787031eba755f1d5ee46644bb0
     Pseudo is Ultrasoft + core correction, Zval =  4.0
     Generated using "atomic" code by A. Dal Corso  v.5.0.2 svn rev. 9415
     Using radial grid of 1073 points,  4 beta functions with: 
                l(1) =   0
                l(2) =   0
                l(3) =   1
                l(4) =   1
     Q(r) pseudized with 0 coefficients 


     PseudoPot. # 5 for  H read from file:
     /nfs/slac/g/suncatfs/sw/external/esp-psp/v2/H.UPF
     MD5 check sum: bd57da0722753ddfd9833a65b40bb853
     Pseudo is Ultrasoft, Zval =  1.0
     Generated using "atomic" code by A. Dal Corso  v.5.0.2 svn rev. 9415
     Using radial grid of  929 points,  2 beta functions with: 
                l(1) =   0
                l(2) =   0
     Q(r) pseudized with 0 coefficients 


     vdW kernel table read from file vdW_kernel_table
     MD5 check sum: 095c7af220d748ca6e76c0b4c6cfb241

     atomic species   valence    mass     pseudopotential
        Zn1           12.00    65.39000     Zn( 1.00)
        Cu1           11.00    63.54600     Cu( 1.00)
        O1             6.00    15.99940      O( 1.00)
        C1             4.00    12.01100      C( 1.00)
        H1             1.00     1.00794      H( 1.00)

     No symmetry found



   Cartesian axes

     site n.     atom                  positions (alat units)
         1           Zn1 tau(   1) = (   0.5065707   1.1675466  17.8827851  )
         2           Cu1 tau(   2) = (   3.3568054   1.0798508  17.7506697  )
         3           Cu1 tau(   3) = (   5.8418615   1.0387537  17.6827260  )
         4           Cu1 tau(   4) = (   1.9578030   5.3288297  16.9757012  )
         5           Cu1 tau(   5) = (   4.5589116   5.3343225  16.9713087  )
         6           Cu1 tau(   6) = (   7.1608858   5.3415522  16.9809727  )
         7           Cu1 tau(   7) = (   0.6502251   3.2637216  16.2661710  )
         8           Cu1 tau(   8) = (   3.2610171   3.2400102  16.2864498  )
         9           Cu1 tau(   9) = (   5.8518416   3.2412962  16.3107646  )
        10           Cu1 tau(  10) = (   1.9485860   1.1393515  15.5466891  )
        11           Cu1 tau(  11) = (   4.5378563   1.1293452  15.5337798  )
        12           Cu1 tau(  12) = (   7.1814350   1.1448621  15.5376855  )
        13           Cu1 tau(  13) = (   0.6553556   5.3658302  14.7628560  )
        14           Cu1 tau(  14) = (   3.2517384   5.3555773  14.7653275  )
        15           Cu1 tau(  15) = (   5.8610087   5.3569170  14.7608911  )
        16           Cu1 tau(  16) = (   1.9544800   3.2249645  14.0161681  )
        17           Cu1 tau(  17) = (   4.5582090   3.2260245  14.0225605  )
        18           Cu1 tau(  18) = (   7.1501149   3.2277496  14.0167356  )
        19           Cu1 tau(  19) = (   0.6505353   1.0963948  13.2895739  )
        20           Cu1 tau(  20) = (   3.2526883   1.0963948  13.2895739  )
        21           Cu1 tau(  21) = (   5.8548490   1.0963948  13.2895739  )
        22           Cu1 tau(  22) = (   1.9516079   5.3456991  12.5384024  )
        23           Cu1 tau(  23) = (   4.5537687   5.3456991  12.5384024  )
        24           Cu1 tau(  24) = (   7.1559216   5.3456991  12.5384024  )
        25           Cu1 tau(  25) = (   0.6505353   3.2210437  11.7872121  )
        26           Cu1 tau(  26) = (   3.2526883   3.2210437  11.7872121  )
        27           Cu1 tau(  27) = (   5.8548490   3.2210437  11.7872121  )
        28           Cu1 tau(  28) = (   1.9516079   1.0963948  11.0360406  )
        29           Cu1 tau(  29) = (   4.5537687   1.0963948  11.0360406  )
        30           Cu1 tau(  30) = (   7.1559216   1.0963948  11.0360406  )
        31           Cu1 tau(  31) = (   0.6505353   5.3456991  10.2848690  )
        32           Cu1 tau(  32) = (   3.2526883   5.3456991  10.2848690  )
        33           Cu1 tau(  33) = (   5.8548490   5.3456991  10.2848690  )
        34           Cu1 tau(  34) = (   1.9516079   3.2210437   9.5336788  )
        35           Cu1 tau(  35) = (   4.5537687   3.2210437   9.5336788  )
        36           Cu1 tau(  36) = (   7.1559216   3.2210437   9.5336788  )
        37           O1  tau(  37) = (   1.9731973   1.1845733  19.0641071  )
        38           C1  tau(  38) = (   2.7862340   1.0724845  20.3995275  )
        39           H1  tau(  39) = (   2.7740160   2.0134307  20.9499480  )
        40           H1  tau(  40) = (   1.9084961   0.4876763  20.6880514  )
        41           H1  tau(  41) = (   3.6732961   0.5110464  20.6914153  )

     number of k points=    10  Marzari-Vanderbilt smearing, width (Ry)=  0.0073
                       cart. coord. in units 2pi/alat
        k(    1) = (   0.0000000   0.0000000   0.0000000), wk =   0.1250000
        k(    2) = (   0.0000000   0.0392221   0.0000000), wk =   0.2500000
        k(    3) = (   0.0000000  -0.0784443   0.0000000), wk =   0.1250000
        k(    4) = (   0.0320247   0.0000000   0.0000000), wk =   0.2500000
        k(    5) = (   0.0320247   0.0392221   0.0000000), wk =   0.2500000
        k(    6) = (   0.0320247  -0.0784443   0.0000000), wk =   0.2500000
        k(    7) = (   0.0320247  -0.0392221   0.0000000), wk =   0.2500000
        k(    8) = (  -0.0640495   0.0000000   0.0000000), wk =   0.1250000
        k(    9) = (  -0.0640495   0.0392221   0.0000000), wk =   0.2500000
        k(   10) = (  -0.0640495  -0.0784443   0.0000000), wk =   0.1250000

     Dense  grid:  1139367 G-vectors     FFT dimensions: (  96,  75, 360)

     Smooth grid:   288467 G-vectors     FFT dimensions: (  60,  48, 216)

     Largest allocated arrays     est. size (Mb)     dimensions
        Kohn-Sham Wavefunctions        14.97 Mb     (    4562,  215)
        NL pseudopotentials            46.64 Mb     (    4562,  670)
        Each V/rho on FFT grid          4.94 Mb     (  324000)
        Each G-vector array             1.09 Mb     (  142423)
        G-vector shells                 0.43 Mb     (   56912)
     Largest temporary arrays     est. size (Mb)     dimensions
        Auxiliary wavefunctions        59.87 Mb     (    4562,  860)
        Each subspace H/S matrix       11.29 Mb     (     860,  860)
        Each <psi_i|beta_j> matrix      2.20 Mb     (     670,  215)
        Arrays for rho mixing          49.44 Mb     (  324000,   10)

     Check: negative/imaginary core charge=   -0.000012    0.000000

     Initial potential from superposition of free atoms
     Check: negative starting charge=   -0.002952

     starting charge  409.99168, renormalised to  410.00000

     negative rho (up, down):  2.952E-03 0.000E+00


     ************************************************************************
     *
     * You are using vdW-DF for exchange-correlation in this calculation.
     * Please cite the following three references that made this development
     * possible:
     *
     *   M. Dion, H. Rydberg, E. Schroder, D. C. Langreth, and
     *   B. I. Lundqvist, Phys. Rev. Lett. 92, 246401 (2004).
     *
     *   T. Thonhauser, V. R. Cooper, S. Li, A. Puzder, P. Hyldgaard, and
     *   D. C. Langreth, Phys. Rev. B 76, 125112 (2007).
     *
     *   G. Roman-Perez and J. M. Soler, Phys. Rev. Lett. 103, 096102 (2009).
     *
     *
     * If you are using vdW-DF2, please also cite:
     *
     *   K. Lee, E. D. Murray, L. Kong, B. I. Lundqvist, and
     *   D. C. Langreth, Phys. Rev. B 82, 081101(R) (2010).
     *
     *
     * If you are calculating the stress with vdW-DF, please also cite:
     *
     *   R. Sabatini, E. Kucukbenli, B. Kolb, T. Thonhauser, and
     *   S. de Gironcoli, J. Phys.: Condens. Matter 24, 424209 (2012).
     *
     ************************************************************************

     Carrying out vdW-DF run using the following parameters:

     Nqs =      20    Nr_points =    1024   r_max =   100.000
     q_mesh =
               0.00001000     0.04494208     0.09755937     0.15916263
               0.23128650     0.31572767     0.41458969     0.53033537
               0.66584808     0.82450364     1.01025438     1.22772762
               1.48234092     1.78043706     2.12944203     2.53805004
               3.01644009     3.57652955     4.23227104     5.00000000

     Gradients computed in reciprocal space

     ************************************************************************


 
     Adding external electric field

     Computed dipole along edir(3) : 
        Dipole               -0.0030 Ry au,         -0.0076 Debye
        Dipole field         -0.0000 Ry au
 
        Potential amp.        0.0004 Ry
        Total length         52.5607 bohr
 
     Starting wfc are  332 randomized atomic wfcs

     total cpu time spent up to now is       95.7 secs

     per-process dynamical memory:   353.7 Mb

     Self-consistent Calculation

     iteration #  1     ecut=    36.75 Ry     beta=0.10
     Davidson diagonalization with overlap
     ethr =  1.00E-02,  avg # of iterations =  3.0

     Threshold (ethr) on eigenvalues was too large:
     Diagonalizing with lowered threshold

     Davidson diagonalization with overlap
     ethr =  4.41E-04,  avg # of iterations =  3.0

     negative rho (up, down):  1.336E-03 0.000E+00
 
     Adding external electric field

     Computed dipole along edir(3) : 
        Dipole               -0.0145 Ry au,         -0.0368 Debye
        Dipole field         -0.0000 Ry au
 
        Potential amp.        0.0020 Ry
        Total length         52.5607 bohr
 

     total cpu time spent up to now is      397.0 secs

     total energy              =   -4330.36532815 Ry
     Harris-Foulkes estimate   =   -4330.42916817 Ry
     estimated scf accuracy    <       1.89120236 Ry

     iteration #  2     ecut=    36.75 Ry     beta=0.10
     Davidson diagonalization with overlap
     ethr =  4.61E-04,  avg # of iterations =  1.0

     negative rho (up, down):  2.811E-04 0.000E+00
 
     Adding external electric field

     Computed dipole along edir(3) : 
        Dipole               -0.1295 Ry au,         -0.3291 Debye
        Dipole field         -0.0002 Ry au
 
        Potential amp.        0.0179 Ry
        Total length         52.5607 bohr
 

     total cpu time spent up to now is      548.1 secs

     total energy              =   -4329.90038761 Ry
     Harris-Foulkes estimate   =   -4330.38254163 Ry
     estimated scf accuracy    <       1.72269130 Ry

     iteration #  3     ecut=    36.75 Ry     beta=0.10
     Davidson diagonalization with overlap
     ethr =  4.20E-04,  avg # of iterations =  3.8

     negative rho (up, down):  1.327E-04 0.000E+00
 
     Adding external electric field

     Computed dipole along edir(3) : 
        Dipole               -0.1201 Ry au,         -0.3052 Debye
        Dipole field         -0.0002 Ry au
 
        Potential amp.        0.0166 Ry
        Total length         52.5607 bohr
 

     total cpu time spent up to now is      718.4 secs

     total energy              =   -4330.07323152 Ry
     Harris-Foulkes estimate   =   -4330.08637459 Ry
     estimated scf accuracy    <       0.70015316 Ry

     iteration #  4     ecut=    36.75 Ry     beta=0.10
     Davidson diagonalization with overlap
     ethr =  1.71E-04,  avg # of iterations =  2.0

     negative rho (up, down):  3.076E-05 0.000E+00
 
     Adding external electric field

     Computed dipole along edir(3) : 
        Dipole               -0.2073 Ry au,         -0.5270 Debye
        Dipole field         -0.0003 Ry au
 
        Potential amp.        0.0286 Ry
        Total length         52.5607 bohr
 

     total cpu time spent up to now is      873.2 secs

     total energy              =   -4330.00414961 Ry
     Harris-Foulkes estimate   =   -4330.09044077 Ry
     estimated scf accuracy    <       0.53506289 Ry

     iteration #  5     ecut=    36.75 Ry     beta=0.10
     Davidson diagonalization with overlap
     ethr =  1.31E-04,  avg # of iterations =  3.6

     negative rho (up, down):  2.176E-05 0.000E+00
 
     Adding external electric field

     Computed dipole along edir(3) : 
        Dipole               -0.2405 Ry au,         -0.6114 Debye
        Dipole field         -0.0003 Ry au
 
        Potential amp.        0.0332 Ry
        Total length         52.5607 bohr
 

     total cpu time spent up to now is     1037.5 secs

     total energy              =   -4330.02238955 Ry
     Harris-Foulkes estimate   =   -4330.03411628 Ry
     estimated scf accuracy    <       0.11225468 Ry

     iteration #  6     ecut=    36.75 Ry     beta=0.10
     Davidson diagonalization with overlap
     ethr =  2.74E-05,  avg # of iterations =  6.8

     negative rho (up, down):  1.076E-05 0.000E+00
 
     Adding external electric field

     Computed dipole along edir(3) : 
        Dipole               -0.2374 Ry au,         -0.6034 Debye
        Dipole field         -0.0003 Ry au
 
        Potential amp.        0.0327 Ry
        Total length         52.5607 bohr
 

     total cpu time spent up to now is     1220.6 secs

     total energy              =   -4330.03084076 Ry
     Harris-Foulkes estimate   =   -4330.03239851 Ry
     estimated scf accuracy    <       0.07789162 Ry

     iteration #  7     ecut=    36.75 Ry     beta=0.10
     Davidson diagonalization with overlap
     ethr =  1.90E-05,  avg # of iterations =  2.6

     negative rho (up, down):  3.484E-06 0.000E+00
 
     Adding external electric field

     Computed dipole along edir(3) : 
        Dipole               -0.3002 Ry au,         -0.7631 Debye
        Dipole field         -0.0004 Ry au
 
        Potential amp.        0.0414 Ry
        Total length         52.5607 bohr
 

     total cpu time spent up to now is     1375.4 secs

     total energy              =   -4330.02436237 Ry
     Harris-Foulkes estimate   =   -4330.03218216 Ry
     estimated scf accuracy    <       0.07516535 Ry

     iteration #  8     ecut=    36.75 Ry     beta=0.10
     Davidson diagonalization with overlap
     ethr =  1.83E-05,  avg # of iterations =  4.0

     negative rho (up, down):  2.050E-06 0.000E+00
 
     Adding external electric field

     Computed dipole along edir(3) : 
        Dipole               -0.3391 Ry au,         -0.8619 Debye
        Dipole field         -0.0004 Ry au
 
        Potential amp.        0.0468 Ry
        Total length         52.5607 bohr
 

     total cpu time spent up to now is     1542.0 secs

     total energy              =   -4330.02077083 Ry
     Harris-Foulkes estimate   =   -4330.03270666 Ry
     estimated scf accuracy    <       0.10971074 Ry

     iteration #  9     ecut=    36.75 Ry     beta=0.10
     Davidson diagonalization with overlap
     ethr =  1.83E-05,  avg # of iterations =  3.0

     negative rho (up, down):  1.804E-06 0.000E+00
 
     Adding external electric field

     Computed dipole along edir(3) : 
        Dipole               -0.3886 Ry au,         -0.9876 Debye
        Dipole field         -0.0005 Ry au
 
        Potential amp.        0.0536 Ry
        Total length         52.5607 bohr
 

     total cpu time spent up to now is     1701.0 secs

     total energy              =   -4330.02575876 Ry
     Harris-Foulkes estimate   =   -4330.02533894 Ry
     estimated scf accuracy    <       0.05599314 Ry

     iteration # 10     ecut=    36.75 Ry     beta=0.10
     Davidson diagonalization with overlap
     ethr =  1.37E-05,  avg # of iterations =  1.0

     negative rho (up, down):  2.040E-06 0.000E+00
 
     Adding external electric field

     Computed dipole along edir(3) : 
        Dipole               -0.4312 Ry au,         -1.0960 Debye
        Dipole field         -0.0006 Ry au
 
        Potential amp.        0.0595 Ry
        Total length         52.5607 bohr
 

     total cpu time spent up to now is     1848.2 secs

     total energy              =   -4330.02446303 Ry
     Harris-Foulkes estimate   =   -4330.02621697 Ry
     estimated scf accuracy    <       0.05261604 Ry

     iteration # 11     ecut=    36.75 Ry     beta=0.10
     Davidson diagonalization with overlap
     ethr =  1.28E-05,  avg # of iterations =  1.8

     negative rho (up, down):  1.051E-06 0.000E+00
 
     Adding external electric field

     Computed dipole along edir(3) : 
        Dipole               -0.4286 Ry au,         -1.0893 Debye
        Dipole field         -0.0006 Ry au
 
        Potential amp.        0.0591 Ry
        Total length         52.5607 bohr
 

     total cpu time spent up to now is     1996.4 secs

     total energy              =   -4330.02471472 Ry
     Harris-Foulkes estimate   =   -4330.02504574 Ry
     estimated scf accuracy    <       0.04325084 Ry

     iteration # 12     ecut=    36.75 Ry     beta=0.10
     Davidson diagonalization with overlap
     ethr =  1.05E-05,  avg # of iterations =  1.0

     negative rho (up, down):  3.656E-03 0.000E+00
 
     Adding external electric field

     Computed dipole along edir(3) : 
        Dipole               -0.4954 Ry au,         -1.2592 Debye
        Dipole field         -0.0006 Ry au
 
        Potential amp.        0.0683 Ry
        Total length         52.5607 bohr
 

     total cpu time spent up to now is     2144.0 secs

     total energy              =   -4330.01852458 Ry
     Harris-Foulkes estimate   =   -4330.02501216 Ry
     estimated scf accuracy    <       0.04429055 Ry

     iteration # 13     ecut=    36.75 Ry     beta=0.10
     Davidson diagonalization with overlap
     ethr =  1.05E-05,  avg # of iterations =  4.0

     negative rho (up, down):  1.713E-02 0.000E+00
 
     Adding external electric field

     Computed dipole along edir(3) : 
        Dipole               -0.5576 Ry au,         -1.4172 Debye
        Dipole field         -0.0007 Ry au
 
        Potential amp.        0.0769 Ry
        Total length         52.5607 bohr
 

     total cpu time spent up to now is     2306.9 secs

     total energy              =   -4330.01803753 Ry
     Harris-Foulkes estimate   =   -4330.02060986 Ry
     estimated scf accuracy    <       0.02563409 Ry

     iteration # 14     ecut=    36.75 Ry     beta=0.10
     Davidson diagonalization with overlap
     ethr =  6.25E-06,  avg # of iterations =  5.6

     negative rho (up, down):  7.574E-03 0.000E+00
 
     Adding external electric field

     Computed dipole along edir(3) : 
        Dipole               -0.4930 Ry au,         -1.2531 Debye
        Dipole field         -0.0006 Ry au
 
        Potential amp.        0.0680 Ry
        Total length         52.5607 bohr
 

     total cpu time spent up to now is     2480.4 secs

     total energy              =   -4330.01765582 Ry
     Harris-Foulkes estimate   =   -4330.01980586 Ry
     estimated scf accuracy    <       0.01762240 Ry

     iteration # 15     ecut=    36.75 Ry     beta=0.10
     Davidson diagonalization with overlap
     ethr =  4.30E-06,  avg # of iterations =  3.5

     negative rho (up, down):  2.945E-03 0.000E+00
 
     Adding external electric field

     Computed dipole along edir(3) : 
        Dipole               -0.4623 Ry au,         -1.1750 Debye
        Dipole field         -0.0006 Ry au
 
        Potential amp.        0.0638 Ry
        Total length         52.5607 bohr
 

     total cpu time spent up to now is     2641.2 secs

     total energy              =   -4330.01774707 Ry
     Harris-Foulkes estimate   =   -4330.01869419 Ry
     estimated scf accuracy    <       0.01407813 Ry

     iteration # 16     ecut=    36.75 Ry     beta=0.10
     Davidson diagonalization with overlap
     ethr =  3.43E-06,  avg # of iterations =  2.9

     negative rho (up, down):  1.926E-03 0.000E+00
 
     Adding external electric field

     Computed dipole along edir(3) : 
        Dipole               -0.4486 Ry au,         -1.1402 Debye
        Dipole field         -0.0006 Ry au
 
        Potential amp.        0.0619 Ry
        Total length         52.5607 bohr
 

     total cpu time spent up to now is     2798.6 secs

     total energy              =   -4330.01794092 Ry
     Harris-Foulkes estimate   =   -4330.01811978 Ry
     estimated scf accuracy    <       0.01088970 Ry

     iteration # 17     ecut=    36.75 Ry     beta=0.10
     Davidson diagonalization with overlap
     ethr =  2.66E-06,  avg # of iterations =  1.0

     negative rho (up, down):  5.408E-04 0.000E+00
 
     Adding external electric field

     Computed dipole along edir(3) : 
        Dipole               -0.4290 Ry au,         -1.0903 Debye
        Dipole field         -0.0006 Ry au
 
        Potential amp.        0.0592 Ry
        Total length         52.5607 bohr
 

     total cpu time spent up to now is     2948.9 secs

     total energy              =   -4330.01811837 Ry
     Harris-Foulkes estimate   =   -4330.01808080 Ry
     estimated scf accuracy    <       0.01045390 Ry

     iteration # 18     ecut=    36.75 Ry     beta=0.10
     Davidson diagonalization with overlap
     ethr =  2.55E-06,  avg # of iterations =  1.0

     negative rho (up, down):  6.600E-06 0.000E+00
 
     Adding external electric field

     Computed dipole along edir(3) : 
        Dipole               -0.2631 Ry au,         -0.6687 Debye
        Dipole field         -0.0003 Ry au
 
        Potential amp.        0.0363 Ry
        Total length         52.5607 bohr
 

     total cpu time spent up to now is     3094.6 secs

     total energy              =   -4330.01760286 Ry
     Harris-Foulkes estimate   =   -4330.01831160 Ry
     estimated scf accuracy    <       0.01031451 Ry

     iteration # 19     ecut=    36.75 Ry     beta=0.10
     Davidson diagonalization with overlap
     ethr =  2.52E-06,  avg # of iterations =  4.0

     negative rho (up, down):  1.031E-06 0.000E+00
 
     Adding external electric field

     Computed dipole along edir(3) : 
        Dipole               -0.3284 Ry au,         -0.8348 Debye
        Dipole field         -0.0004 Ry au
 
        Potential amp.        0.0453 Ry
        Total length         52.5607 bohr
 

     total cpu time spent up to now is     3255.4 secs

     total energy              =   -4330.01775379 Ry
     Harris-Foulkes estimate   =   -4330.01821730 Ry
     estimated scf accuracy    <       0.01082428 Ry

     iteration # 20     ecut=    36.75 Ry     beta=0.10
     Davidson diagonalization with overlap
     ethr =  2.52E-06,  avg # of iterations =  2.0

     negative rho (up, down):  6.706E-03 0.000E+00
 
     Adding external electric field

     Computed dipole along edir(3) : 
        Dipole               -0.4585 Ry au,         -1.1654 Debye
        Dipole field         -0.0006 Ry au
 
        Potential amp.        0.0632 Ry
        Total length         52.5607 bohr
 

     total cpu time spent up to now is     3405.9 secs

     total energy              =   -4330.01768918 Ry
     Harris-Foulkes estimate   =   -4330.01780984 Ry
     estimated scf accuracy    <       0.00931995 Ry

     iteration # 21     ecut=    36.75 Ry     beta=0.10
     Davidson diagonalization with overlap
     ethr =  2.27E-06,  avg # of iterations =  4.0

     negative rho (up, down):  5.679E-03 0.000E+00
 
     Adding external electric field

     Computed dipole along edir(3) : 
        Dipole                0.0565 Ry au,          0.1437 Debye
        Dipole field          0.0001 Ry au
 
        Potential amp.       -0.0078 Ry
        Total length         52.5607 bohr
 

     total cpu time spent up to now is     3571.8 secs

     total energy              =   -4330.01824303 Ry
     Harris-Foulkes estimate   =   -4330.01946061 Ry
     estimated scf accuracy    <       0.01519075 Ry

     iteration # 22     ecut=    36.75 Ry     beta=0.10
     Davidson diagonalization with overlap
     ethr =  2.27E-06,  avg # of iterations =  4.7

     negative rho (up, down):  2.056E-03 0.000E+00
 
     Adding external electric field

     Computed dipole along edir(3) : 
        Dipole                0.0630 Ry au,          0.1603 Debye
        Dipole field          0.0001 Ry au
 
        Potential amp.       -0.0087 Ry
        Total length         52.5607 bohr
 

     total cpu time spent up to now is     3749.1 secs

     total energy              =   -4330.01841638 Ry
     Harris-Foulkes estimate   =   -4330.02070955 Ry
     estimated scf accuracy    <       0.02310249 Ry

     iteration # 23     ecut=    36.75 Ry     beta=0.10
     Davidson diagonalization with overlap
     ethr =  2.27E-06,  avg # of iterations =  3.0

     negative rho (up, down):  2.307E-03 0.000E+00
 
     Adding external electric field

     Computed dipole along edir(3) : 
        Dipole                0.0748 Ry au,          0.1901 Debye
        Dipole field          0.0001 Ry au
 
        Potential amp.       -0.0103 Ry
        Total length         52.5607 bohr
 

     total cpu time spent up to now is     3906.6 secs

     total energy              =   -4330.01879075 Ry
     Harris-Foulkes estimate   =   -4330.01928359 Ry
     estimated scf accuracy    <       0.01969690 Ry

     iteration # 24     ecut=    36.75 Ry     beta=0.10
     Davidson diagonalization with overlap
     ethr =  2.27E-06,  avg # of iterations =  1.0

     negative rho (up, down):  4.041E-03 0.000E+00
 
     Adding external electric field

     Computed dipole along edir(3) : 
        Dipole                0.1062 Ry au,          0.2701 Debye
        Dipole field          0.0001 Ry au
 
        Potential amp.       -0.0147 Ry
        Total length         52.5607 bohr
 

     total cpu time spent up to now is     4052.2 secs

     total energy              =   -4330.01716848 Ry
     Harris-Foulkes estimate   =   -4330.01886074 Ry
     estimated scf accuracy    <       0.01891629 Ry

     iteration # 25     ecut=    36.75 Ry     beta=0.10
     Davidson diagonalization with overlap
     ethr =  2.27E-06,  avg # of iterations =  2.2

     negative rho (up, down):  1.034E-02 0.000E+00
 
     Adding external electric field

     Computed dipole along edir(3) : 
        Dipole                0.2511 Ry au,          0.6381 Debye
        Dipole field          0.0003 Ry au
 
        Potential amp.       -0.0346 Ry
        Total length         52.5607 bohr
 

     total cpu time spent up to now is     4204.5 secs

     total energy              =   -4330.01360523 Ry
     Harris-Foulkes estimate   =   -4330.01722192 Ry
     estimated scf accuracy    <       0.01399014 Ry

     iteration # 26     ecut=    36.75 Ry     beta=0.10
     Davidson diagonalization with overlap
     ethr =  2.27E-06,  avg # of iterations =  4.2

     negative rho (up, down):  9.794E-03 0.000E+00
 
     Adding external electric field

     Computed dipole along edir(3) : 
        Dipole                0.3062 Ry au,          0.7783 Debye
        Dipole field          0.0004 Ry au
 
        Potential amp.       -0.0422 Ry
        Total length         52.5607 bohr
 

     total cpu time spent up to now is     4373.4 secs

     total energy              =   -4330.01384867 Ry
     Harris-Foulkes estimate   =   -4330.01498132 Ry
     estimated scf accuracy    <       0.00516405 Ry

     iteration # 27     ecut=    36.75 Ry     beta=0.10
     Davidson diagonalization with overlap
     ethr =  1.26E-06,  avg # of iterations =  3.4

     negative rho (up, down):  1.120E-02 0.000E+00
 
     Adding external electric field

     Computed dipole along edir(3) : 
        Dipole                0.3845 Ry au,          0.9772 Debye
        Dipole field          0.0005 Ry au
 
        Potential amp.       -0.0530 Ry
        Total length         52.5607 bohr
 

     total cpu time spent up to now is     4537.6 secs

     total energy              =   -4330.01406500 Ry
     Harris-Foulkes estimate   =   -4330.01438846 Ry
     estimated scf accuracy    <       0.00197478 Ry

     iteration # 28     ecut=    36.75 Ry     beta=0.10
     Davidson diagonalization with overlap
     ethr =  4.82E-07,  avg # of iterations =  4.5

     negative rho (up, down):  1.092E-02 0.000E+00
 
     Adding external electric field

     Computed dipole along edir(3) : 
        Dipole                0.3822 Ry au,          0.9715 Debye
        Dipole field          0.0005 Ry au
 
        Potential amp.       -0.0527 Ry
        Total length         52.5607 bohr
 

     total cpu time spent up to now is     4703.4 secs

     total energy              =   -4330.01422599 Ry
     Harris-Foulkes estimate   =   -4330.01425667 Ry
     estimated scf accuracy    <       0.00080436 Ry

     iteration # 29     ecut=    36.75 Ry     beta=0.10
     Davidson diagonalization with overlap
     ethr =  1.96E-07,  avg # of iterations =  1.0

     negative rho (up, down):  1.190E-02 0.000E+00
 
     Adding external electric field

     Computed dipole along edir(3) : 
        Dipole                0.3784 Ry au,          0.9618 Debye
        Dipole field          0.0005 Ry au
 
        Potential amp.       -0.0522 Ry
        Total length         52.5607 bohr
 

     total cpu time spent up to now is     4849.5 secs

     total energy              =   -4330.01413303 Ry
     Harris-Foulkes estimate   =   -4330.01424531 Ry
     estimated scf accuracy    <       0.00075391 Ry

     iteration # 30     ecut=    36.75 Ry     beta=0.10
     Davidson diagonalization with overlap
     ethr =  1.84E-07,  avg # of iterations =  3.8

     negative rho (up, down):  1.134E-02 0.000E+00
 
     Adding external electric field

     Computed dipole along edir(3) : 
        Dipole                0.3533 Ry au,          0.8979 Debye
        Dipole field          0.0005 Ry au
 
        Potential amp.       -0.0487 Ry
        Total length         52.5607 bohr
 

     total cpu time spent up to now is     5009.7 secs

     total energy              =   -4330.01401240 Ry
     Harris-Foulkes estimate   =   -4330.01420188 Ry
     estimated scf accuracy    <       0.00066099 Ry

     iteration # 31     ecut=    36.75 Ry     beta=0.10
     Davidson diagonalization with overlap
     ethr =  1.61E-07,  avg # of iterations =  3.9

     negative rho (up, down):  7.697E-03 0.000E+00
 
     Adding external electric field

     Computed dipole along edir(3) : 
        Dipole                0.3546 Ry au,          0.9012 Debye
        Dipole field          0.0005 Ry au
 
        Potential amp.       -0.0489 Ry
        Total length         52.5607 bohr
 

     total cpu time spent up to now is     5171.6 secs

     total energy              =   -4330.01406733 Ry
     Harris-Foulkes estimate   =   -4330.01408052 Ry
     estimated scf accuracy    <       0.00033881 Ry

     iteration # 32     ecut=    36.75 Ry     beta=0.10
     Davidson diagonalization with overlap
     ethr =  8.26E-08,  avg # of iterations =  2.0

     negative rho (up, down):  4.177E-03 0.000E+00
 
     Adding external electric field

     Computed dipole along edir(3) : 
        Dipole                0.3913 Ry au,          0.9945 Debye
        Dipole field          0.0005 Ry au
 
        Potential amp.       -0.0540 Ry
        Total length         52.5607 bohr
 

     total cpu time spent up to now is     5326.1 secs

     total energy              =   -4330.01405424 Ry
     Harris-Foulkes estimate   =   -4330.01404385 Ry
     estimated scf accuracy    <       0.00022696 Ry

     iteration # 33     ecut=    36.75 Ry     beta=0.10
     Davidson diagonalization with overlap
     ethr =  5.54E-08,  avg # of iterations =  4.0

     negative rho (up, down):  4.252E-03 0.000E+00
 
     Adding external electric field

     Computed dipole along edir(3) : 
        Dipole                0.3999 Ry au,          1.0164 Debye
        Dipole field          0.0005 Ry au
 
        Potential amp.       -0.0551 Ry
        Total length         52.5607 bohr
 

     total cpu time spent up to now is     5499.8 secs

     total energy              =   -4330.01406302 Ry
     Harris-Foulkes estimate   =   -4330.01408722 Ry
     estimated scf accuracy    <       0.00028320 Ry

     iteration # 34     ecut=    36.75 Ry     beta=0.10
     Davidson diagonalization with overlap
     ethr =  5.54E-08,  avg # of iterations =  2.5

     negative rho (up, down):  2.663E-03 0.000E+00
 
     Adding external electric field

     Computed dipole along edir(3) : 
        Dipole                0.3995 Ry au,          1.0153 Debye
        Dipole field          0.0005 Ry au
 
        Potential amp.       -0.0551 Ry
        Total length         52.5607 bohr
 

     total cpu time spent up to now is     5654.5 secs

     total energy              =   -4330.01400888 Ry
     Harris-Foulkes estimate   =   -4330.01406789 Ry
     estimated scf accuracy    <       0.00018815 Ry

     iteration # 35     ecut=    36.75 Ry     beta=0.10
     Davidson diagonalization with overlap
     ethr =  4.59E-08,  avg # of iterations =  4.0

     negative rho (up, down):  3.051E-03 0.000E+00
 
     Adding external electric field

     Computed dipole along edir(3) : 
        Dipole                0.3856 Ry au,          0.9801 Debye
        Dipole field          0.0005 Ry au
 
        Potential amp.       -0.0532 Ry
        Total length         52.5607 bohr
 

     total cpu time spent up to now is     5825.2 secs

     total energy              =   -4330.01401104 Ry
     Harris-Foulkes estimate   =   -4330.01405060 Ry
     estimated scf accuracy    <       0.00008623 Ry

     iteration # 36     ecut=    36.75 Ry     beta=0.10
     Davidson diagonalization with overlap
     ethr =  2.10E-08,  avg # of iterations =  4.2

     negative rho (up, down):  2.585E-03 0.000E+00
 
     Adding external electric field

     Computed dipole along edir(3) : 
        Dipole                0.3836 Ry au,          0.9750 Debye
        Dipole field          0.0005 Ry au
 
        Potential amp.       -0.0529 Ry
        Total length         52.5607 bohr
 

     total cpu time spent up to now is     5998.2 secs

     total energy              =   -4330.01401486 Ry
     Harris-Foulkes estimate   =   -4330.01402431 Ry
     estimated scf accuracy    <       0.00004932 Ry

     iteration # 37     ecut=    36.75 Ry     beta=0.10
     Davidson diagonalization with overlap
     ethr =  1.20E-08,  avg # of iterations =  3.2

     negative rho (up, down):  2.281E-03 0.000E+00
 
     Adding external electric field

     Computed dipole along edir(3) : 
        Dipole                0.3692 Ry au,          0.9385 Debye
        Dipole field          0.0005 Ry au
 
        Potential amp.       -0.0509 Ry
        Total length         52.5607 bohr
 

     total cpu time spent up to now is     6158.2 secs

     total energy              =   -4330.01400883 Ry
     Harris-Foulkes estimate   =   -4330.01403188 Ry
     estimated scf accuracy    <       0.00003218 Ry

     iteration # 38     ecut=    36.75 Ry     beta=0.10
     Davidson diagonalization with overlap
     ethr =  7.85E-09,  avg # of iterations =  4.1

     negative rho (up, down):  2.360E-03 0.000E+00
 
     Adding external electric field

     Computed dipole along edir(3) : 
        Dipole                0.3712 Ry au,          0.9435 Debye
        Dipole field          0.0005 Ry au
 
        Potential amp.       -0.0512 Ry
        Total length         52.5607 bohr
 

     total cpu time spent up to now is     6332.5 secs

     total energy              =   -4330.01400801 Ry
     Harris-Foulkes estimate   =   -4330.01401306 Ry
     estimated scf accuracy    <       0.00002955 Ry

     iteration # 39     ecut=    36.75 Ry     beta=0.10
     Davidson diagonalization with overlap
     ethr =  7.21E-09,  avg # of iterations =  3.8

     negative rho (up, down):  2.458E-03 0.000E+00
 
     Adding external electric field

     Computed dipole along edir(3) : 
        Dipole                0.3731 Ry au,          0.9484 Debye
        Dipole field          0.0005 Ry au
 
        Potential amp.       -0.0515 Ry
        Total length         52.5607 bohr
 

     total cpu time spent up to now is     6497.9 secs

     total energy              =   -4330.01400920 Ry
     Harris-Foulkes estimate   =   -4330.01400845 Ry
     estimated scf accuracy    <       0.00001462 Ry

     iteration # 40     ecut=    36.75 Ry     beta=0.10
     Davidson diagonalization with overlap
     ethr =  3.57E-09,  avg # of iterations =  1.0

     negative rho (up, down):  3.125E-03 0.000E+00
 
     Adding external electric field

     Computed dipole along edir(3) : 
        Dipole                0.3756 Ry au,          0.9546 Debye
        Dipole field          0.0005 Ry au
 
        Potential amp.       -0.0518 Ry
        Total length         52.5607 bohr
 

     total cpu time spent up to now is     6653.2 secs

     total energy              =   -4330.01400643 Ry
     Harris-Foulkes estimate   =   -4330.01400702 Ry
     estimated scf accuracy    <       0.00001323 Ry

     iteration # 41     ecut=    36.75 Ry     beta=0.10
     Davidson diagonalization with overlap
     ethr =  3.23E-09,  avg # of iterations =  3.0

     negative rho (up, down):  3.320E-03 0.000E+00
 
     Adding external electric field

     Computed dipole along edir(3) : 
        Dipole                0.3645 Ry au,          0.9263 Debye
        Dipole field          0.0005 Ry au
 
        Potential amp.       -0.0503 Ry
        Total length         52.5607 bohr
 

     total cpu time spent up to now is     6813.7 secs

     End of self-consistent calculation

          k = 0.0000 0.0000 0.0000 ( 36131 PWs)   bands (ev):

   -19.0631 -12.1436  -7.6365  -7.3038  -6.5997  -6.4370  -6.3754  -6.2485
    -6.2350  -5.9450  -5.7368  -5.3587  -5.2422  -5.1170  -4.7928  -4.4405
    -4.4079  -4.3344  -4.2373  -3.7349  -3.6207  -3.5905  -3.4899  -3.4798
    -3.4650  -3.4408  -3.4143  -3.3734  -3.3098  -3.2327  -3.1929  -3.1615
    -3.1570  -3.1499  -3.1273  -3.0750  -3.0631  -3.0285  -3.0196  -3.0154
    -2.9975  -2.9747  -2.9642  -2.9367  -2.8899  -2.8716  -2.8177  -2.7947
    -2.7780  -2.7121  -2.6766  -2.6548  -2.6363  -2.6084  -2.5915  -2.4808
    -2.4634  -2.4312  -2.3953  -2.3892  -2.3686  -2.3550  -2.3495  -2.3398
    -2.3223  -2.3165  -2.2947  -2.2861  -2.2649  -2.2353  -2.2222  -2.2164
    -2.1976  -2.1808  -2.1507  -2.1293  -2.1169  -2.0996  -2.0816  -2.0767
    -2.0621  -2.0440  -2.0308  -2.0228  -1.9941  -1.9674  -1.9652  -1.9238
    -1.9112  -1.9073  -1.9052  -1.8804  -1.8709  -1.8639  -1.8453  -1.8358
    -1.8250  -1.8147  -1.8127  -1.7972  -1.7754  -1.7643  -1.7566  -1.7482
    -1.7392  -1.7007  -1.6956  -1.6942  -1.6763  -1.6693  -1.6491  -1.6296
    -1.6180  -1.6106  -1.6022  -1.5928  -1.5845  -1.5718  -1.5429  -1.5044
    -1.4892  -1.4877  -1.4725  -1.4510  -1.4287  -1.4198  -1.4039  -1.3900
    -1.3762  -1.3715  -1.3608  -1.3042  -1.2962  -1.2891  -1.2801  -1.2618
    -1.2495  -1.2263  -1.2197  -1.2152  -1.1989  -1.1852  -1.1326  -1.1159
    -1.0963  -1.0764  -1.0707  -1.0605  -1.0522  -1.0461  -1.0349  -1.0298
    -1.0094  -0.9983  -0.9857  -0.9802  -0.9751  -0.9631  -0.9539  -0.9436
    -0.9347  -0.9242  -0.9155  -0.9129  -0.9082  -0.8898  -0.8839  -0.8729
    -0.8653  -0.8436  -0.8396  -0.8233  -0.8143  -0.8104  -0.7817  -0.7722
    -0.7693  -0.7594  -0.7478  -0.7417  -0.7338  -0.7189  -0.7133  -0.7027
    -0.6946  -0.6836  -0.6687  -0.6638  -0.6569  -0.6527  -0.6422  -0.6249
    -0.5924  -0.5553  -0.4748  -0.4665  -0.2679  -0.1411  -0.0709   0.0196
     0.3235   0.7827   0.8642   0.9181   0.9459   0.9816   1.1294   1.2218
     1.4758   1.5638   1.5834   1.6845   1.7106   1.9967   2.5274

          k = 0.0000 0.0392 0.0000 ( 36033 PWs)   bands (ev):

   -19.0630 -12.1431  -7.4391  -7.2589  -6.5898  -6.3794  -6.2859  -6.2520
    -6.2016  -5.9330  -5.7463  -5.5531  -5.2691  -5.0699  -5.0066  -4.7429
    -4.4415  -4.2347  -4.1467  -3.9274  -3.9166  -3.7846  -3.7290  -3.6755
    -3.5905  -3.5446  -3.3663  -3.3232  -3.2915  -3.2294  -3.2151  -3.1794
    -3.1695  -3.1350  -3.1037  -3.0542  -3.0016  -2.9749  -2.9679  -2.9598
    -2.9403  -2.8652  -2.8470  -2.8231  -2.8051  -2.7809  -2.7696  -2.7682
    -2.7633  -2.7252  -2.7006  -2.6787  -2.6538  -2.5952  -2.5771  -2.5616
    -2.5330  -2.5209  -2.4903  -2.4664  -2.4284  -2.3781  -2.3521  -2.3386
    -2.3272  -2.3030  -2.2868  -2.2416  -2.2275  -2.1959  -2.1883  -2.1711
    -2.1574  -2.1375  -2.1161  -2.1093  -2.0860  -2.0693  -2.0557  -2.0449
    -2.0354  -2.0183  -2.0072  -1.9846  -1.9590  -1.9503  -1.9412  -1.9188
    -1.8998  -1.8885  -1.8785  -1.8715  -1.8675  -1.8554  -1.8523  -1.8423
    -1.8398  -1.8301  -1.8165  -1.8090  -1.7904  -1.7801  -1.7684  -1.7635
    -1.7383  -1.7160  -1.7027  -1.6968  -1.6772  -1.6483  -1.6414  -1.6116
    -1.6050  -1.5883  -1.5624  -1.5396  -1.5372  -1.5062  -1.4949  -1.4764
    -1.4648  -1.4586  -1.4420  -1.4170  -1.4011  -1.3930  -1.3766  -1.3589
    -1.3445  -1.3247  -1.3123  -1.2963  -1.2815  -1.2779  -1.2690  -1.2521
    -1.2375  -1.2323  -1.2106  -1.1900  -1.1694  -1.1654  -1.1526  -1.1386
    -1.1277  -1.0986  -1.0841  -1.0700  -1.0593  -1.0433  -1.0359  -1.0160
    -1.0104  -1.0019  -0.9785  -0.9684  -0.9642  -0.9394  -0.9332  -0.9273
    -0.9206  -0.9110  -0.9074  -0.8995  -0.8870  -0.8798  -0.8736  -0.8651
    -0.8517  -0.8451  -0.8303  -0.8260  -0.8188  -0.8088  -0.7973  -0.7912
    -0.7757  -0.7663  -0.7563  -0.7514  -0.7405  -0.7339  -0.7234  -0.7181
    -0.7008  -0.6948  -0.6782  -0.6631  -0.6501  -0.6368  -0.6086  -0.5886
    -0.5840  -0.5777  -0.4935  -0.4766  -0.3981  -0.3324  -0.2117  -0.1259
    -0.0124   0.0796   0.2926   0.3424   0.4234   0.9121   1.1765   1.2417
     1.4615   1.5955   2.0925   2.1454   2.4674   2.7620   2.7950

          k = 0.0000-0.0784 0.0000 ( 36028 PWs)   bands (ev):

   -19.0630 -12.1427  -7.3375  -6.6955  -6.6627  -6.5804  -6.3798  -6.2475
    -6.2324  -5.9759  -5.7726  -5.5726  -5.5129  -5.1399  -4.5939  -4.5891
    -4.5837  -4.5245  -4.2531  -4.1909  -3.9495  -3.9171  -3.9030  -3.8527
    -3.7102  -3.6445  -3.3459  -3.2868  -3.2640  -3.2437  -3.2020  -3.1287
    -3.0885  -3.0323  -3.0072  -2.9985  -2.9889  -2.9725  -2.9473  -2.8817
    -2.8731  -2.8584  -2.8562  -2.8471  -2.8307  -2.8079  -2.7940  -2.7800
    -2.7712  -2.7636  -2.7478  -2.7128  -2.7084  -2.6806  -2.5638  -2.5424
    -2.5136  -2.4975  -2.4706  -2.4622  -2.3931  -2.3654  -2.3591  -2.3385
    -2.3223  -2.2699  -2.2541  -2.2435  -2.2180  -2.1869  -2.1721  -2.1666
    -2.1338  -2.1195  -2.1157  -2.1008  -2.0794  -2.0554  -2.0184  -2.0014
    -1.9979  -1.9900  -1.9728  -1.9643  -1.9576  -1.9491  -1.9411  -1.9147
    -1.9064  -1.8894  -1.8850  -1.8645  -1.8525  -1.8414  -1.8303  -1.8236
    -1.8200  -1.8075  -1.8015  -1.8013  -1.7797  -1.7779  -1.7629  -1.7396
    -1.7288  -1.7144  -1.6927  -1.6778  -1.6696  -1.6541  -1.6446  -1.6124
    -1.5961  -1.5904  -1.5771  -1.5364  -1.5015  -1.4941  -1.4936  -1.4816
    -1.4757  -1.4487  -1.4244  -1.4073  -1.4013  -1.3975  -1.3451  -1.3296
    -1.2985  -1.2947  -1.2872  -1.2753  -1.2687  -1.2624  -1.2541  -1.2312
    -1.2276  -1.2104  -1.1882  -1.1785  -1.1724  -1.1694  -1.1499  -1.1257
    -1.1181  -1.1056  -1.0968  -1.0900  -1.0818  -1.0673  -1.0655  -1.0571
    -1.0230  -1.0122  -0.9959  -0.9873  -0.9710  -0.9591  -0.9362  -0.9263
    -0.9054  -0.8806  -0.8778  -0.8606  -0.8527  -0.8473  -0.8429  -0.8343
    -0.8280  -0.8165  -0.8112  -0.8041  -0.7940  -0.7835  -0.7733  -0.7676
    -0.7598  -0.7579  -0.7558  -0.7442  -0.7333  -0.7279  -0.7143  -0.7004
    -0.6961  -0.6890  -0.6801  -0.6716  -0.6665  -0.6612  -0.6515  -0.6268
    -0.6207  -0.6038  -0.5867  -0.5811  -0.5359  -0.5235  -0.5119  -0.5043
    -0.2193   0.0254   0.2741   0.4080   0.4924   0.5102   0.8308   1.0117
     1.3355   1.8915   2.3291   2.5372   2.5969   2.7504   2.9290

          k = 0.0320 0.0000 0.0000 ( 36032 PWs)   bands (ev):

   -19.0630 -12.1436  -7.4928  -7.2812  -6.6044  -6.3772  -6.3242  -6.2524
    -6.2381  -6.1947  -5.9300  -5.7359  -5.3027  -4.9899  -4.6581  -4.3163
    -4.2868  -4.2283  -3.8251  -3.6634  -3.6408  -3.6059  -3.5924  -3.5182
    -3.5050  -3.4891  -3.4777  -3.3395  -3.2331  -3.2020  -3.1866  -3.1824
    -3.1601  -3.1363  -3.1279  -3.1118  -3.1021  -3.0847  -3.0700  -3.0452
    -3.0203  -2.9769  -2.9487  -2.9143  -2.8814  -2.8341  -2.8180  -2.7804
    -2.7683  -2.7462  -2.7087  -2.6323  -2.6110  -2.5891  -2.5723  -2.5028
    -2.4824  -2.4524  -2.4213  -2.3912  -2.3798  -2.3576  -2.3498  -2.3471
    -2.3380  -2.3295  -2.3207  -2.2942  -2.2736  -2.2650  -2.2345  -2.2260
    -2.1921  -2.1743  -2.1637  -2.1424  -2.1215  -2.1148  -2.0922  -2.0669
    -2.0500  -2.0411  -2.0337  -2.0235  -2.0048  -1.9907  -1.9742  -1.9632
    -1.9330  -1.9253  -1.9174  -1.9034  -1.8932  -1.8866  -1.8719  -1.8673
    -1.8475  -1.8254  -1.8128  -1.8039  -1.7871  -1.7733  -1.7594  -1.7481
    -1.7355  -1.7128  -1.7034  -1.6868  -1.6755  -1.6701  -1.6644  -1.6446
    -1.6294  -1.6120  -1.5947  -1.5882  -1.5819  -1.5593  -1.5377  -1.5123
    -1.4985  -1.4855  -1.4715  -1.4630  -1.4405  -1.4249  -1.4183  -1.4017
    -1.3849  -1.3630  -1.3535  -1.3429  -1.3209  -1.3102  -1.3017  -1.2848
    -1.2680  -1.2529  -1.2357  -1.2210  -1.2064  -1.2009  -1.1840  -1.1715
    -1.1605  -1.1482  -1.1261  -1.1141  -1.0997  -1.0907  -1.0718  -1.0509
    -1.0456  -1.0201  -1.0097  -0.9997  -0.9824  -0.9658  -0.9509  -0.9370
    -0.9241  -0.9191  -0.8977  -0.8888  -0.8810  -0.8632  -0.8541  -0.8375
    -0.8251  -0.8088  -0.7942  -0.7852  -0.7782  -0.7719  -0.7678  -0.7634
    -0.7476  -0.7411  -0.7354  -0.7258  -0.7225  -0.7143  -0.7042  -0.6853
    -0.6798  -0.6737  -0.6624  -0.6510  -0.6309  -0.6197  -0.5245  -0.5166
    -0.4833  -0.4519  -0.3163  -0.2625  -0.1494   0.0191   0.0578   0.1090
     0.2698   0.3004   0.7752   0.8792   0.9366   0.9716   1.1951   1.3551
     1.4742   1.8709   1.9206   2.2069   2.2465   2.4498   2.4980

          k = 0.0320 0.0392 0.0000 ( 36036 PWs)   bands (ev):

   -19.0630 -12.1432  -7.3630  -7.1725  -6.5924  -6.3804  -6.2600  -6.2483
    -6.1321  -6.0171  -5.8785  -5.7434  -5.4189  -5.2321  -4.8816  -4.6103
    -4.4583  -4.3172  -4.1459  -3.8602  -3.6933  -3.6524  -3.6348  -3.6191
    -3.6026  -3.5617  -3.5010  -3.3620  -3.2967  -3.2285  -3.1936  -3.1728
    -3.1475  -3.1181  -3.0943  -3.0696  -3.0410  -3.0331  -3.0006  -2.9809
    -2.9482  -2.9164  -2.8715  -2.8622  -2.8319  -2.7913  -2.7563  -2.7213
    -2.7121  -2.6968  -2.6726  -2.6625  -2.6321  -2.5908  -2.5677  -2.5529
    -2.5330  -2.4770  -2.4729  -2.4489  -2.4197  -2.4019  -2.3792  -2.3692
    -2.3519  -2.3250  -2.3018  -2.2639  -2.2495  -2.2289  -2.2020  -2.1886
    -2.1778  -2.1511  -2.1265  -2.1172  -2.1048  -2.0860  -2.0695  -2.0603
    -2.0489  -2.0375  -2.0159  -1.9994  -1.9775  -1.9546  -1.9469  -1.9376
    -1.9274  -1.9121  -1.9055  -1.8997  -1.8789  -1.8697  -1.8536  -1.8482
    -1.8367  -1.8271  -1.8195  -1.8171  -1.7975  -1.7931  -1.7598  -1.7481
    -1.7283  -1.7180  -1.7115  -1.6781  -1.6677  -1.6635  -1.6365  -1.6186
    -1.6046  -1.5903  -1.5807  -1.5593  -1.5402  -1.5203  -1.4931  -1.4845
    -1.4737  -1.4546  -1.4449  -1.4276  -1.4087  -1.3926  -1.3820  -1.3659
    -1.3535  -1.3349  -1.3198  -1.3138  -1.3103  -1.2965  -1.2813  -1.2554
    -1.2514  -1.2376  -1.2271  -1.2124  -1.2026  -1.1863  -1.1693  -1.1613
    -1.1482  -1.1389  -1.1298  -1.1148  -1.1033  -1.0877  -1.0660  -1.0581
    -1.0462  -1.0345  -1.0230  -0.9971  -0.9896  -0.9756  -0.9693  -0.9486
    -0.9302  -0.9213  -0.9059  -0.8949  -0.8832  -0.8770  -0.8595  -0.8497
    -0.8334  -0.8232  -0.8181  -0.7993  -0.7913  -0.7784  -0.7658  -0.7449
    -0.7412  -0.7303  -0.7272  -0.7112  -0.7043  -0.6987  -0.6876  -0.6830
    -0.6770  -0.6638  -0.6487  -0.6334  -0.6179  -0.6128  -0.5801  -0.5762
    -0.5192  -0.5093  -0.4707  -0.3600  -0.3173  -0.2015  -0.1373   0.0135
     0.1761   0.3917   0.5199   0.6051   0.8743   1.1332   1.2317   1.4032
     1.4432   1.7378   1.8543   2.0056   2.3196   2.4575   2.6847

          k = 0.0320-0.0784 0.0000 ( 35966 PWs)   bands (ev):

   -19.0630 -12.1427  -7.3261  -6.6137  -6.5411  -6.5017  -6.3784  -6.2424
    -6.2291  -5.9871  -5.7614  -5.5123  -5.4004  -5.3800  -5.3400  -5.0546
    -4.4417  -4.3997  -4.1303  -4.0695  -3.9269  -3.9113  -3.6527  -3.6030
    -3.5861  -3.5572  -3.4578  -3.4278  -3.2643  -3.2357  -3.1884  -3.1444
    -3.1348  -3.1100  -3.0663  -3.0430  -3.0079  -2.9739  -2.9611  -2.9167
    -2.8997  -2.8955  -2.8786  -2.8614  -2.8542  -2.8329  -2.8261  -2.8118
    -2.7326  -2.6851  -2.6723  -2.6293  -2.6036  -2.5848  -2.5357  -2.5265
    -2.5093  -2.5005  -2.4758  -2.4533  -2.4353  -2.4059  -2.3771  -2.3559
    -2.3302  -2.2952  -2.2832  -2.2690  -2.2472  -2.2252  -2.2067  -2.1766
    -2.1555  -2.1411  -2.1240  -2.1165  -2.0710  -2.0526  -2.0425  -2.0226
    -2.0092  -2.0083  -1.9940  -1.9875  -1.9677  -1.9433  -1.9371  -1.9157
    -1.9041  -1.8951  -1.8765  -1.8724  -1.8658  -1.8576  -1.8443  -1.8228
    -1.8159  -1.8064  -1.7955  -1.7827  -1.7758  -1.7722  -1.7597  -1.7569
    -1.7469  -1.7330  -1.7228  -1.7129  -1.6792  -1.6566  -1.6479  -1.6319
    -1.5901  -1.5598  -1.5547  -1.5471  -1.5230  -1.5108  -1.5005  -1.4939
    -1.4850  -1.4567  -1.4476  -1.4292  -1.4190  -1.4081  -1.4001  -1.3900
    -1.3707  -1.3542  -1.3385  -1.3093  -1.3006  -1.2765  -1.2536  -1.2465
    -1.2328  -1.2235  -1.2076  -1.2013  -1.1864  -1.1632  -1.1493  -1.1354
    -1.1247  -1.1151  -1.1083  -1.1035  -1.0952  -1.0655  -1.0501  -1.0400
    -1.0208  -1.0018  -0.9937  -0.9781  -0.9599  -0.9503  -0.9381  -0.9244
    -0.9090  -0.9075  -0.8931  -0.8859  -0.8599  -0.8525  -0.8456  -0.8247
    -0.8180  -0.8061  -0.8015  -0.7938  -0.7844  -0.7688  -0.7621  -0.7587
    -0.7478  -0.7378  -0.7270  -0.7201  -0.7101  -0.6975  -0.6889  -0.6758
    -0.6665  -0.6550  -0.6444  -0.6390  -0.6227  -0.6166  -0.6054  -0.5875
    -0.5676  -0.5531  -0.5347  -0.5263  -0.4612  -0.2332  -0.2027  -0.1232
    -0.0850   0.0846   0.1531   0.3827   0.5519   1.2703   1.3915   1.4538
     1.5154   1.6193   1.8298   2.2178   2.7880   2.9153   2.9946

          k = 0.0320-0.0392 0.0000 ( 36036 PWs)   bands (ev):

   -19.0630 -12.1432  -7.3627  -7.1731  -6.5912  -6.3806  -6.2613  -6.2472
    -6.1268  -6.0243  -5.8819  -5.7409  -5.4178  -5.2323  -4.8711  -4.6171
    -4.4576  -4.3169  -4.1506  -3.8620  -3.6949  -3.6652  -3.6228  -3.6156
    -3.5921  -3.5656  -3.5029  -3.3554  -3.2985  -3.2402  -3.1949  -3.1641
    -3.1581  -3.1234  -3.0831  -3.0651  -3.0434  -3.0292  -3.0000  -2.9749
    -2.9442  -2.9245  -2.8847  -2.8651  -2.8253  -2.7933  -2.7511  -2.7260
    -2.7096  -2.7021  -2.6713  -2.6593  -2.6373  -2.6010  -2.5764  -2.5524
    -2.5298  -2.4794  -2.4644  -2.4451  -2.4215  -2.3970  -2.3837  -2.3648
    -2.3518  -2.3292  -2.2999  -2.2746  -2.2392  -2.2233  -2.2094  -2.1917
    -2.1730  -2.1375  -2.1263  -2.1182  -2.0975  -2.0851  -2.0723  -2.0614
    -2.0461  -2.0316  -2.0218  -2.0006  -1.9709  -1.9573  -1.9427  -1.9399
    -1.9297  -1.9154  -1.9035  -1.8923  -1.8800  -1.8664  -1.8571  -1.8447
    -1.8375  -1.8291  -1.8190  -1.8136  -1.8032  -1.7882  -1.7698  -1.7548
    -1.7279  -1.7157  -1.7070  -1.6920  -1.6684  -1.6563  -1.6469  -1.6244
    -1.6030  -1.5924  -1.5781  -1.5576  -1.5250  -1.5201  -1.5082  -1.4819
    -1.4631  -1.4568  -1.4498  -1.4324  -1.4241  -1.3959  -1.3821  -1.3685
    -1.3611  -1.3343  -1.3238  -1.3139  -1.2985  -1.2922  -1.2766  -1.2600
    -1.2477  -1.2380  -1.2170  -1.2135  -1.1960  -1.1859  -1.1736  -1.1545
    -1.1411  -1.1362  -1.1254  -1.1110  -1.0981  -1.0825  -1.0700  -1.0616
    -1.0446  -1.0325  -1.0189  -1.0041  -0.9882  -0.9778  -0.9544  -0.9384
    -0.9315  -0.9164  -0.9051  -0.8945  -0.8894  -0.8766  -0.8627  -0.8500
    -0.8365  -0.8292  -0.8174  -0.8027  -0.7893  -0.7756  -0.7652  -0.7524
    -0.7396  -0.7317  -0.7211  -0.7117  -0.7033  -0.6936  -0.6872  -0.6851
    -0.6820  -0.6634  -0.6493  -0.6383  -0.6230  -0.6114  -0.6065  -0.5508
    -0.5253  -0.5100  -0.4768  -0.3492  -0.3255  -0.2075  -0.1246   0.0226
     0.1479   0.3959   0.5108   0.5901   0.8713   1.1708   1.2165   1.3786
     1.4527   1.7407   1.8516   2.0403   2.3137   2.4476   2.6862

          k =-0.0640 0.0000 0.0000 ( 36024 PWs)   bands (ev):

   -19.0630 -12.1436  -7.3352  -6.9911  -6.9699  -6.5654  -6.3762  -6.2491
    -6.2358  -6.0649  -5.9028  -5.7385  -5.6918  -5.0968  -4.3907  -4.2390
    -4.0011  -3.9804  -3.9720  -3.9604  -3.5309  -3.5177  -3.4936  -3.4909
    -3.4271  -3.4079  -3.3414  -3.3311  -3.3107  -3.2936  -3.2736  -3.2290
    -3.2093  -3.1495  -3.1438  -3.1274  -3.0968  -3.0800  -3.0648  -3.0063
    -3.0014  -2.9870  -2.9825  -2.9591  -2.9373  -2.8486  -2.7933  -2.7847
    -2.7336  -2.7167  -2.6975  -2.6719  -2.6148  -2.5622  -2.5272  -2.4990
    -2.4705  -2.4656  -2.4437  -2.4233  -2.3978  -2.3790  -2.3718  -2.3688
    -2.3533  -2.3316  -2.3072  -2.2990  -2.2962  -2.2803  -2.2619  -2.2519
    -2.2292  -2.2104  -2.1710  -2.1611  -2.1524  -2.1348  -2.1173  -2.1015
    -2.0755  -2.0716  -2.0442  -2.0157  -2.0008  -1.9936  -1.9880  -1.9799
    -1.9660  -1.9536  -1.9386  -1.9242  -1.9125  -1.8984  -1.8786  -1.8744
    -1.8444  -1.8249  -1.8167  -1.8134  -1.7953  -1.7806  -1.7495  -1.7459
    -1.7277  -1.6905  -1.6844  -1.6708  -1.6619  -1.6583  -1.6376  -1.6233
    -1.6141  -1.5950  -1.5932  -1.5738  -1.5651  -1.5468  -1.5418  -1.5276
    -1.5258  -1.5148  -1.5054  -1.4887  -1.4735  -1.4535  -1.4463  -1.4047
    -1.3961  -1.3743  -1.3639  -1.3495  -1.3439  -1.3383  -1.3331  -1.3076
    -1.2871  -1.2653  -1.2403  -1.2180  -1.2080  -1.2034  -1.1785  -1.1665
    -1.1470  -1.1387  -1.1264  -1.1229  -1.1041  -1.0959  -1.0842  -1.0695
    -1.0629  -1.0527  -1.0195  -1.0022  -0.9983  -0.9874  -0.9745  -0.9647
    -0.9533  -0.9394  -0.9267  -0.8977  -0.8911  -0.8744  -0.8395  -0.8364
    -0.8117  -0.8046  -0.7973  -0.7904  -0.7703  -0.7564  -0.7482  -0.7443
    -0.7383  -0.7312  -0.7207  -0.7107  -0.7026  -0.6839  -0.6775  -0.6619
    -0.6567  -0.6461  -0.6367  -0.6319  -0.6098  -0.5938  -0.5611  -0.4217
    -0.3522  -0.2283  -0.2041  -0.1819  -0.1126   0.1831   0.3183   0.3623
     0.4006   0.4598   0.4875   0.6788   0.7274   1.1535   1.2653   1.4829
     1.6393   1.7894   1.8061   1.8672   1.9677   2.2894   2.5702

          k =-0.0640 0.0392 0.0000 ( 36040 PWs)   bands (ev):

   -19.0630 -12.1432  -7.3231  -6.7831  -6.7544  -6.5420  -6.3783  -6.2508
    -6.2355  -6.0259  -5.7608  -5.7068  -5.5343  -5.0880  -5.0282  -5.0050
    -4.3585  -4.2139  -3.9999  -3.9746  -3.6413  -3.6321  -3.4802  -3.4720
    -3.4683  -3.4305  -3.4241  -3.4057  -3.3503  -3.3272  -3.2855  -3.2516
    -3.1888  -3.1318  -3.1279  -3.0770  -3.0399  -3.0324  -3.0063  -2.9895
    -2.9543  -2.9315  -2.9219  -2.9006  -2.8571  -2.7799  -2.7158  -2.7040
    -2.6976  -2.6718  -2.6508  -2.6241  -2.6001  -2.5890  -2.5548  -2.5495
    -2.5310  -2.5053  -2.4692  -2.4477  -2.4452  -2.3894  -2.3646  -2.3576
    -2.3449  -2.3343  -2.3222  -2.2927  -2.2846  -2.2630  -2.2471  -2.2037
    -2.1946  -2.1749  -2.1720  -2.1548  -2.1412  -2.1182  -2.1106  -2.1014
    -2.0745  -2.0565  -2.0136  -1.9725  -1.9699  -1.9634  -1.9555  -1.9494
    -1.9324  -1.9162  -1.9113  -1.9017  -1.8977  -1.8834  -1.8621  -1.8465
    -1.8333  -1.8145  -1.8078  -1.7877  -1.7735  -1.7647  -1.7515  -1.7411
    -1.7289  -1.7249  -1.7087  -1.6912  -1.6796  -1.6672  -1.6488  -1.6317
    -1.6154  -1.6026  -1.5763  -1.5571  -1.5446  -1.5334  -1.5270  -1.5066
    -1.4967  -1.4786  -1.4619  -1.4356  -1.4203  -1.3948  -1.3824  -1.3733
    -1.3605  -1.3515  -1.3400  -1.3269  -1.3173  -1.3127  -1.3007  -1.2913
    -1.2761  -1.2577  -1.2485  -1.2350  -1.2218  -1.2079  -1.1922  -1.1768
    -1.1570  -1.1456  -1.1267  -1.1100  -1.0960  -1.0824  -1.0708  -1.0575
    -1.0352  -1.0206  -1.0144  -1.0036  -0.9986  -0.9852  -0.9781  -0.9700
    -0.9534  -0.9142  -0.9040  -0.8993  -0.8902  -0.8809  -0.8640  -0.8444
    -0.8195  -0.8187  -0.8082  -0.7945  -0.7773  -0.7700  -0.7515  -0.7359
    -0.7243  -0.7132  -0.7033  -0.6926  -0.6850  -0.6806  -0.6696  -0.6605
    -0.6549  -0.6452  -0.6355  -0.6234  -0.6120  -0.6017  -0.5954  -0.5742
    -0.5664  -0.4437  -0.4256  -0.3905  -0.2999   0.0097   0.1730   0.5515
     0.6361   0.6579   0.7236   1.0291   1.0636   1.0894   1.2065   1.5420
     1.7087   1.8409   1.8976   1.9249   2.0175   2.1380   2.3191

          k =-0.0640-0.0784 0.0000 ( 36100 PWs)   bands (ev):

   -19.0629 -12.1428  -7.3153  -6.6003  -6.3906  -6.2805  -6.2779  -6.1290
    -6.0848  -6.0570  -6.0487  -5.8902  -5.7487  -5.3170  -5.0181  -4.9957
    -4.9623  -4.7839  -3.8579  -3.8078  -3.7944  -3.7477  -3.7195  -3.6942
    -3.4315  -3.4096  -3.3997  -3.3482  -3.3272  -3.3206  -3.2932  -3.2701
    -3.1972  -3.1729  -3.1386  -3.0421  -3.0142  -2.9993  -2.9904  -2.9330
    -2.9084  -2.8782  -2.8592  -2.8541  -2.8160  -2.8112  -2.8044  -2.7699
    -2.7607  -2.7002  -2.6861  -2.6396  -2.5807  -2.5791  -2.5194  -2.4696
    -2.4403  -2.4318  -2.4226  -2.4077  -2.4043  -2.3988  -2.3970  -2.3903
    -2.3750  -2.3719  -2.3641  -2.3535  -2.3131  -2.2580  -2.1931  -2.1769
    -2.1689  -2.1618  -2.1208  -2.0947  -2.0918  -2.0697  -2.0629  -2.0425
    -2.0243  -2.0062  -1.9914  -1.9837  -1.9642  -1.9345  -1.9303  -1.9166
    -1.9110  -1.9081  -1.8976  -1.8922  -1.8752  -1.8738  -1.8553  -1.8214
    -1.8047  -1.7916  -1.7837  -1.7776  -1.7531  -1.7474  -1.7405  -1.7247
    -1.7186  -1.7133  -1.7038  -1.6937  -1.6826  -1.6800  -1.6639  -1.6540
    -1.6428  -1.6105  -1.6008  -1.5863  -1.5765  -1.5264  -1.5168  -1.5150
    -1.5033  -1.4859  -1.4796  -1.4647  -1.4557  -1.4500  -1.4277  -1.4155
    -1.4069  -1.3802  -1.3720  -1.3490  -1.3459  -1.3163  -1.2928  -1.2794
    -1.2288  -1.2191  -1.2051  -1.1888  -1.1843  -1.1712  -1.1522  -1.1343
    -1.1300  -1.1120  -1.0798  -1.0728  -1.0591  -1.0427  -1.0339  -1.0279
    -1.0194  -0.9927  -0.9776  -0.9702  -0.9662  -0.9445  -0.9353  -0.9254
    -0.9219  -0.9103  -0.8964  -0.8813  -0.8744  -0.8432  -0.8377  -0.8334
    -0.8144  -0.8083  -0.7960  -0.7841  -0.7742  -0.7658  -0.7506  -0.7440
    -0.7301  -0.7296  -0.7186  -0.7107  -0.6916  -0.6759  -0.6721  -0.6594
    -0.6468  -0.6326  -0.6121  -0.6074  -0.6019  -0.5908  -0.5797  -0.5600
    -0.5547  -0.5423  -0.5270  -0.4922  -0.4758  -0.3973  -0.2490   0.5612
     0.6360   0.7129   0.8567   0.9426   1.0145   1.0502   1.1046   1.3136
     1.4550   1.8888   1.9867   2.2199   2.2841   2.3149   2.4450

     the Fermi energy is     0.9777 ev

!    total energy              =   -4330.01400333 Ry
     Harris-Foulkes estimate   =   -4330.01401771 Ry
     estimated scf accuracy    <       0.00000541 Ry

     The total energy is the sum of the following terms:

     one-electron contribution =  -48389.47534342 Ry
     hartree contribution      =   24628.57181031 Ry
     xc contribution           =   -1494.72202309 Ry
     ewald contribution        =   20925.61163450 Ry
     electric field correction =       0.00017425 Ry
     smearing contrib. (-TS)   =      -0.00025590 Ry

     convergence has been achieved in  41 iterations

     Forces acting on atoms (Ry/au):


     negative rho (up, down):  3.320E-03 0.000E+00
     atom    1 type  1   force =    -0.02872003   -0.00169930   -0.01892245
     atom    2 type  2   force =     0.01377166   -0.00008849   -0.03075429
     atom    3 type  2   force =     0.00024626   -0.00132591   -0.00324326
     atom    4 type  2   force =    -0.00003921   -0.00069028   -0.00622090
     atom    5 type  2   force =    -0.00019724    0.00074363    0.00088139
     atom    6 type  2   force =     0.00071174    0.00176529    0.00259601
     atom    7 type  2   force =    -0.00123562    0.00000818   -0.00006792
     atom    8 type  2   force =     0.00080536    0.00068757   -0.00023763
     atom    9 type  2   force =    -0.00028241    0.00025700    0.00110889
     atom   10 type  2   force =    -0.00015876   -0.00092805   -0.00032116
     atom   11 type  2   force =    -0.00026274   -0.00067074    0.00031022
     atom   12 type  2   force =     0.00082726   -0.00012383    0.00080902
     atom   13 type  2   force =     0.00032017    0.00011063    0.00047889
     atom   14 type  2   force =    -0.00011136    0.00082919    0.00074693
     atom   15 type  2   force =    -0.00014217   -0.00040043   -0.00083753
     atom   16 type  2   force =    -0.00002018    0.00004905    0.00000045
     atom   17 type  2   force =     0.00012037    0.00007352   -0.00011591
     atom   18 type  2   force =     0.00010080    0.00008324    0.00015585
     atom   19 type  2   force =     0.00061475    0.00159789    0.00004992
     atom   20 type  2   force =     0.00027846    0.00086492    0.00048004
     atom   21 type  2   force =    -0.00018359    0.00087677    0.00410596
     atom   22 type  2   force =    -0.00009438    0.00330332   -0.00329919
     atom   23 type  2   force =    -0.00055410    0.00281867   -0.00234388
     atom   24 type  2   force =     0.00048542    0.00244541   -0.00336749
     atom   25 type  2   force =     0.00045366   -0.00439735   -0.00805049
     atom   26 type  2   force =     0.00000805   -0.00388791   -0.00926202
     atom   27 type  2   force =    -0.00018039   -0.00364253   -0.00886971
     atom   28 type  2   force =    -0.00044446   -0.00231577   -0.00625420
     atom   29 type  2   force =     0.00041028   -0.00203789   -0.00560835
     atom   30 type  2   force =    -0.00013142   -0.00187083   -0.00547087
     atom   31 type  2   force =     0.00048835   -0.00155891    0.00138262
     atom   32 type  2   force =    -0.00073132   -0.00267526    0.00218276
     atom   33 type  2   force =     0.00039157   -0.00225589    0.00131582
     atom   34 type  2   force =     0.00111572    0.00321135    0.01349034
     atom   35 type  2   force =    -0.00013943    0.00427633    0.01242479
     atom   36 type  2   force =    -0.00098792    0.00376491    0.01281251
     atom   37 type  3   force =     0.12705104    0.02413194    0.03142994
     atom   38 type  4   force =    -0.16053320   -0.01688082    0.03291127
     atom   39 type  5   force =     0.00150062    0.00765807   -0.02045442
     atom   40 type  5   force =     0.03006206   -0.00736442    0.07687392
     atom   41 type  5   force =     0.01538634   -0.00474227   -0.06284589

     Total force =     0.244615     Total SCF correction =     0.010126
 !ASE
     Check: negative starting charge=   -0.002952
     NEW-OLD atomic charge density approx. for the potential

     Check: negative/imaginary core charge=   -0.000012    0.000000
     Check: negative starting charge=   -0.002941

     negative rho (up, down):  3.360E-03 0.000E+00
 
     Adding external electric field

     Computed dipole along edir(3) : 
        Dipole                0.3644 Ry au,          0.9263 Debye
        Dipole field          0.0005 Ry au
 
        Potential amp.       -0.0503 Ry
        Total length         52.5607 bohr
 

     total cpu time spent up to now is    10850.0 secs

     per-process dynamical memory:   319.8 Mb

     Self-consistent Calculation

     iteration #  1     ecut=    36.75 Ry     beta=0.10
     Davidson diagonalization with overlap
     ethr =  3.23E-09,  avg # of iterations =  9.3

     negative rho (up, down):  3.341E-03 0.000E+00
 
     Adding external electric field

     Computed dipole along edir(3) : 
        Dipole                0.3646 Ry au,          0.9267 Debye
        Dipole field          0.0005 Ry au
 
        Potential amp.       -0.0503 Ry
        Total length         52.5607 bohr
 

     total cpu time spent up to now is    11333.7 secs

     total energy              =   -4330.03675508 Ry
     Harris-Foulkes estimate   =   -4330.03681364 Ry
     estimated scf accuracy    <       0.00321083 Ry

     iteration #  2     ecut=    36.75 Ry     beta=0.10
     Davidson diagonalization with overlap
     ethr =  7.83E-07,  avg # of iterations =  1.0

     negative rho (up, down):  4.221E-03 0.000E+00
 
     Adding external electric field

     Computed dipole along edir(3) : 
        Dipole                0.3663 Ry au,          0.9310 Debye
        Dipole field          0.0005 Ry au
 
        Potential amp.       -0.0505 Ry
        Total length         52.5607 bohr
 

     total cpu time spent up to now is    11493.4 secs

     total energy              =   -4330.03624163 Ry
     Harris-Foulkes estimate   =   -4330.03675590 Ry
     estimated scf accuracy    <       0.00266502 Ry

     iteration #  3     ecut=    36.75 Ry     beta=0.10
     Davidson diagonalization with overlap
     ethr =  6.50E-07,  avg # of iterations =  3.0

     negative rho (up, down):  3.961E-03 0.000E+00
 
     Adding external electric field

     Computed dipole along edir(3) : 
        Dipole                0.3664 Ry au,          0.9312 Debye
        Dipole field          0.0005 Ry au
 
        Potential amp.       -0.0505 Ry
        Total length         52.5607 bohr
 

     total cpu time spent up to now is    11666.0 secs

     total energy              =   -4330.03650348 Ry
     Harris-Foulkes estimate   =   -4330.03651159 Ry
     estimated scf accuracy    <       0.00021596 Ry

     iteration #  4     ecut=    36.75 Ry     beta=0.10
     Davidson diagonalization with overlap
     ethr =  5.27E-08,  avg # of iterations =  3.1

     negative rho (up, down):  4.068E-03 0.000E+00
 
     Adding external electric field

     Computed dipole along edir(3) : 
        Dipole                0.3678 Ry au,          0.9348 Debye
        Dipole field          0.0005 Ry au
 
        Potential amp.       -0.0507 Ry
        Total length         52.5607 bohr
 

     total cpu time spent up to now is    11834.1 secs

     total energy              =   -4330.03645748 Ry
     Harris-Foulkes estimate   =   -4330.03651240 Ry
     estimated scf accuracy    <       0.00017394 Ry

     iteration #  5     ecut=    36.75 Ry     beta=0.10
     Davidson diagonalization with overlap
     ethr =  4.24E-08,  avg # of iterations =  4.0

     negative rho (up, down):  3.922E-03 0.000E+00
 
     Adding external electric field

     Computed dipole along edir(3) : 
        Dipole                0.3681 Ry au,          0.9356 Debye
        Dipole field          0.0005 Ry au
 
        Potential amp.       -0.0508 Ry
        Total length         52.5607 bohr
 

     total cpu time spent up to now is    12012.6 secs

     total energy              =   -4330.03647769 Ry
     Harris-Foulkes estimate   =   -4330.03647525 Ry
     estimated scf accuracy    <       0.00002339 Ry

     iteration #  6     ecut=    36.75 Ry     beta=0.10
     Davidson diagonalization with overlap
     ethr =  5.71E-09,  avg # of iterations =  4.4

     negative rho (up, down):  3.782E-03 0.000E+00
 
     Adding external electric field

     Computed dipole along edir(3) : 
        Dipole                0.3683 Ry au,          0.9362 Debye
        Dipole field          0.0005 Ry au
 
        Potential amp.       -0.0508 Ry
        Total length         52.5607 bohr
 

     total cpu time spent up to now is    12189.7 secs

     total energy              =   -4330.03648334 Ry
     Harris-Foulkes estimate   =   -4330.03647940 Ry
     estimated scf accuracy    <       0.00001891 Ry

     iteration #  7     ecut=    36.75 Ry     beta=0.10
     Davidson diagonalization with overlap
     ethr =  4.61E-09,  avg # of iterations =  2.1

     negative rho (up, down):  3.687E-03 0.000E+00
 
     Adding external electric field

     Computed dipole along edir(3) : 
        Dipole                0.3690 Ry au,          0.9380 Debye
        Dipole field          0.0005 Ry au
 
        Potential amp.       -0.0509 Ry
        Total length         52.5607 bohr
 

     total cpu time spent up to now is    12352.5 secs

     total energy              =   -4330.03648595 Ry
     Harris-Foulkes estimate   =   -4330.03648294 Ry
     estimated scf accuracy    <       0.00001678 Ry

     iteration #  8     ecut=    36.75 Ry     beta=0.10
     Davidson diagonalization with overlap
     ethr =  4.09E-09,  avg # of iterations =  3.1

     negative rho (up, down):  3.684E-03 0.000E+00
 
     Adding external electric field

     Computed dipole along edir(3) : 
        Dipole                0.3695 Ry au,          0.9393 Debye
        Dipole field          0.0005 Ry au
 
        Potential amp.       -0.0510 Ry
        Total length         52.5607 bohr
 

     total cpu time spent up to now is    12521.2 secs

     total energy              =   -4330.03648647 Ry
     Harris-Foulkes estimate   =   -4330.03648620 Ry
     estimated scf accuracy    <       0.00001626 Ry

     iteration #  9     ecut=    36.75 Ry     beta=0.10
     Davidson diagonalization with overlap
     ethr =  3.97E-09,  avg # of iterations =  3.0

     negative rho (up, down):  3.726E-03 0.000E+00
 
     Adding external electric field

     Computed dipole along edir(3) : 
        Dipole                0.3701 Ry au,          0.9407 Debye
        Dipole field          0.0005 Ry au
 
        Potential amp.       -0.0510 Ry
        Total length         52.5607 bohr
 

     total cpu time spent up to now is    12687.8 secs

     total energy              =   -4330.03648531 Ry
     Harris-Foulkes estimate   =   -4330.03648653 Ry
     estimated scf accuracy    <       0.00001707 Ry

     iteration # 10     ecut=    36.75 Ry     beta=0.10
     Davidson diagonalization with overlap
     ethr =  3.97E-09,  avg # of iterations =  3.0

     negative rho (up, down):  3.307E-03 0.000E+00
 
     Adding external electric field

     Computed dipole along edir(3) : 
        Dipole                0.3337 Ry au,          0.8483 Debye
        Dipole field          0.0004 Ry au
 
        Potential amp.       -0.0460 Ry
        Total length         52.5607 bohr
 

     total cpu time spent up to now is    12849.4 secs

     End of self-consistent calculation

          k = 0.0000 0.0000 0.0000 ( 36131 PWs)   bands (ev):

   -19.1335 -12.0382  -7.6443  -7.1979  -6.5904  -6.4497  -6.3652  -6.2584
    -6.2441  -6.0278  -5.7011  -5.3989  -5.2590  -5.1526  -4.8103  -4.4544
    -4.4212  -4.3581  -4.2513  -3.7481  -3.6338  -3.6055  -3.5103  -3.4919
    -3.4792  -3.4548  -3.4275  -3.3976  -3.3214  -3.2423  -3.2057  -3.1757
    -3.1695  -3.1636  -3.1411  -3.0843  -3.0811  -3.0418  -3.0335  -3.0191
    -3.0115  -2.9849  -2.9765  -2.9454  -2.9042  -2.8869  -2.8294  -2.8087
    -2.7904  -2.7279  -2.6904  -2.6680  -2.6517  -2.6195  -2.6039  -2.4957
    -2.4790  -2.4481  -2.4107  -2.4044  -2.3825  -2.3685  -2.3631  -2.3534
    -2.3362  -2.3277  -2.3090  -2.3002  -2.2824  -2.2491  -2.2342  -2.2309
    -2.2109  -2.1966  -2.1646  -2.1432  -2.1288  -2.1167  -2.0937  -2.0896
    -2.0762  -2.0596  -2.0445  -2.0361  -2.0069  -1.9811  -1.9793  -1.9376
    -1.9242  -1.9208  -1.9185  -1.8938  -1.8842  -1.8775  -1.8592  -1.8499
    -1.8389  -1.8292  -1.8261  -1.8105  -1.7891  -1.7780  -1.7703  -1.7620
    -1.7538  -1.7143  -1.7097  -1.7065  -1.6904  -1.6832  -1.6626  -1.6438
    -1.6319  -1.6238  -1.6163  -1.6067  -1.5979  -1.5857  -1.5571  -1.5187
    -1.5032  -1.5009  -1.4853  -1.4644  -1.4423  -1.4342  -1.4174  -1.4033
    -1.3900  -1.3849  -1.3748  -1.3182  -1.3101  -1.3023  -1.2924  -1.2755
    -1.2632  -1.2386  -1.2339  -1.2285  -1.2132  -1.1988  -1.1460  -1.1276
    -1.1099  -1.0900  -1.0844  -1.0749  -1.0653  -1.0597  -1.0486  -1.0437
    -1.0229  -1.0119  -0.9990  -0.9939  -0.9886  -0.9772  -0.9681  -0.9570
    -0.9483  -0.9386  -0.9290  -0.9263  -0.9219  -0.9035  -0.8974  -0.8865
    -0.8791  -0.8568  -0.8551  -0.8363  -0.8275  -0.8236  -0.7928  -0.7865
    -0.7826  -0.7734  -0.7619  -0.7553  -0.7477  -0.7310  -0.7267  -0.7155
    -0.7083  -0.6950  -0.6819  -0.6765  -0.6705  -0.6660  -0.6554  -0.6380
    -0.6053  -0.5601  -0.4890  -0.4794  -0.2817  -0.1546  -0.0830   0.0091
     0.3072   0.7693   0.8512   0.9040   0.9327   0.9664   1.1182   1.2067
     1.4629   1.5518   1.5709   1.6716   1.6982   1.9808   2.5147

          k = 0.0000 0.0392 0.0000 ( 36033 PWs)   bands (ev):

   -19.1335 -12.0377  -7.4244  -7.1736  -6.5819  -6.3697  -6.2969  -6.2617
    -6.2130  -6.0211  -5.7071  -5.5649  -5.3243  -5.0866  -5.0296  -4.7575
    -4.4553  -4.2588  -4.1611  -3.9414  -3.9303  -3.7972  -3.7414  -3.6903
    -3.6114  -3.5567  -3.3874  -3.3359  -3.3016  -3.2424  -3.2289  -3.1958
    -3.1838  -3.1456  -3.1095  -3.0656  -3.0161  -2.9881  -2.9820  -2.9730
    -2.9525  -2.8791  -2.8607  -2.8334  -2.8153  -2.7949  -2.7829  -2.7806
    -2.7775  -2.7380  -2.7147  -2.6918  -2.6689  -2.6105  -2.5913  -2.5757
    -2.5454  -2.5348  -2.5100  -2.4803  -2.4420  -2.3931  -2.3665  -2.3537
    -2.3409  -2.3171  -2.3001  -2.2593  -2.2423  -2.2090  -2.2026  -2.1849
    -2.1718  -2.1488  -2.1297  -2.1241  -2.0998  -2.0828  -2.0694  -2.0579
    -2.0487  -2.0318  -2.0210  -1.9985  -1.9715  -1.9635  -1.9545  -1.9329
    -1.9132  -1.9022  -1.8917  -1.8847  -1.8814  -1.8687  -1.8658  -1.8561
    -1.8537  -1.8435  -1.8302  -1.8226  -1.8040  -1.7935  -1.7825  -1.7775
    -1.7525  -1.7297  -1.7170  -1.7115  -1.6912  -1.6622  -1.6567  -1.6256
    -1.6190  -1.6024  -1.5766  -1.5527  -1.5508  -1.5200  -1.5079  -1.4897
    -1.4788  -1.4724  -1.4560  -1.4306  -1.4147  -1.4064  -1.3899  -1.3726
    -1.3578  -1.3383  -1.3259  -1.3097  -1.2950  -1.2913  -1.2829  -1.2653
    -1.2511  -1.2453  -1.2241  -1.2027  -1.1831  -1.1787  -1.1665  -1.1512
    -1.1400  -1.1121  -1.0972  -1.0835  -1.0724  -1.0565  -1.0497  -1.0298
    -1.0236  -1.0158  -0.9923  -0.9818  -0.9774  -0.9537  -0.9457  -0.9408
    -0.9338  -0.9245  -0.9210  -0.9129  -0.9006  -0.8933  -0.8870  -0.8785
    -0.8651  -0.8583  -0.8438  -0.8411  -0.8314  -0.8225  -0.8104  -0.8047
    -0.7886  -0.7799  -0.7690  -0.7634  -0.7544  -0.7469  -0.7367  -0.7307
    -0.7137  -0.7066  -0.6910  -0.6760  -0.6635  -0.6494  -0.6216  -0.6027
    -0.5979  -0.5909  -0.5077  -0.4864  -0.4108  -0.3453  -0.2244  -0.1390
    -0.0242   0.0678   0.2733   0.3295   0.4076   0.8999   1.1616   1.2298
     1.4455   1.5840   2.0802   2.1306   2.4720   2.7484   2.7816

          k = 0.0000-0.0784 0.0000 ( 36028 PWs)   bands (ev):

   -19.1334 -12.0373  -7.2281  -6.7059  -6.6716  -6.5755  -6.3701  -6.2577
    -6.2411  -6.0449  -5.7791  -5.5594  -5.5345  -5.1963  -4.6122  -4.6026
    -4.5985  -4.5404  -4.2656  -4.2050  -3.9758  -3.9306  -3.9165  -3.8677
    -3.7186  -3.6578  -3.3729  -3.2988  -3.2754  -3.2582  -3.2117  -3.1355
    -3.1017  -3.0431  -3.0213  -3.0110  -3.0022  -2.9872  -2.9606  -2.8944
    -2.8863  -2.8718  -2.8698  -2.8601  -2.8438  -2.8219  -2.8062  -2.7934
    -2.7844  -2.7769  -2.7525  -2.7312  -2.7227  -2.6958  -2.5777  -2.5593
    -2.5296  -2.5168  -2.4846  -2.4747  -2.4080  -2.3790  -2.3739  -2.3522
    -2.3376  -2.2839  -2.2725  -2.2565  -2.2322  -2.2002  -2.1867  -2.1799
    -2.1463  -2.1327  -2.1295  -2.1147  -2.0922  -2.0676  -2.0315  -2.0155
    -2.0116  -2.0032  -1.9864  -1.9785  -1.9711  -1.9631  -1.9539  -1.9282
    -1.9209  -1.9018  -1.8988  -1.8779  -1.8663  -1.8552  -1.8435  -1.8374
    -1.8329  -1.8213  -1.8155  -1.8142  -1.7943  -1.7916  -1.7751  -1.7529
    -1.7426  -1.7283  -1.7062  -1.6914  -1.6837  -1.6733  -1.6578  -1.6264
    -1.6099  -1.6044  -1.5901  -1.5506  -1.5150  -1.5086  -1.5073  -1.4953
    -1.4895  -1.4623  -1.4376  -1.4216  -1.4149  -1.4115  -1.3586  -1.3438
    -1.3113  -1.3081  -1.2999  -1.2888  -1.2820  -1.2771  -1.2676  -1.2449
[...]
    -6.2761  -6.2556  -5.8696  -5.6505  -5.5485  -5.1873  -4.7740  -4.4352
    -4.4058  -4.3597  -3.9643  -3.7990  -3.7561  -3.7288  -3.7110  -3.6323
    -3.6185  -3.6089  -3.6002  -3.4543  -3.3576  -3.3258  -3.3068  -3.2986
    -3.2809  -3.2595  -3.2380  -3.2283  -3.2160  -3.1974  -3.1771  -3.1342
    -3.1200  -3.0691  -3.0510  -3.0143  -2.9794  -2.9312  -2.9179  -2.8986
    -2.8650  -2.8548  -2.8170  -2.7429  -2.7248  -2.7117  -2.6551  -2.6243
    -2.5998  -2.5563  -2.5221  -2.5038  -2.4978  -2.4753  -2.4651  -2.4631
    -2.4512  -2.4398  -2.4271  -2.4047  -2.3941  -2.3714  -2.3509  -2.3226
    -2.2995  -2.2859  -2.2685  -2.2405  -2.2324  -2.2218  -2.2026  -2.1826
    -2.1607  -2.1539  -2.1387  -2.1242  -2.1170  -2.0938  -2.0840  -2.0674
    -2.0450  -2.0288  -2.0262  -2.0131  -2.0061  -1.9952  -1.9839  -1.9786
    -1.9580  -1.9304  -1.9251  -1.9135  -1.8967  -1.8864  -1.8678  -1.8572
    -1.8440  -1.8214  -1.8155  -1.7933  -1.7862  -1.7798  -1.7747  -1.7545
    -1.7319  -1.7160  -1.7043  -1.6994  -1.6898  -1.6629  -1.6435  -1.6265
    -1.6102  -1.5962  -1.5802  -1.5745  -1.5518  -1.5310  -1.5273  -1.5118
    -1.4918  -1.4727  -1.4657  -1.4491  -1.4347  -1.4203  -1.4067  -1.3962
    -1.3708  -1.3569  -1.3421  -1.3292  -1.3192  -1.3130  -1.2921  -1.2817
    -1.2647  -1.2557  -1.2340  -1.2201  -1.2090  -1.1968  -1.1793  -1.1580
    -1.1503  -1.1267  -1.1178  -1.1103  -1.0887  -1.0735  -1.0611  -1.0484
    -1.0394  -1.0283  -1.0065  -0.9922  -0.9863  -0.9684  -0.9587  -0.9453
    -0.9334  -0.9200  -0.9068  -0.8945  -0.8881  -0.8829  -0.8744  -0.8704
    -0.8552  -0.8479  -0.8411  -0.8355  -0.8298  -0.8246  -0.8084  -0.7910
    -0.7880  -0.7755  -0.7689  -0.7559  -0.7335  -0.7252  -0.6353  -0.6246
    -0.5952  -0.5542  -0.4191  -0.3757  -0.2487  -0.0927  -0.0634  -0.0030
     0.1567   0.1865   0.6798   0.7718   0.8337   0.8634   1.0677   1.2629
     1.3791   1.7547   1.8113   2.0979   2.1440   2.3394   2.3870

          k = 0.0320 0.0392 0.0000 ( 36036 PWs)   bands (ev):

   -19.3837 -11.6155  -7.3573  -6.9765  -6.5235  -6.3326  -6.3038  -6.2843
    -6.1967  -6.1143  -5.8559  -5.6552  -5.5514  -5.4969  -5.0497  -4.7141
    -4.5811  -4.4307  -4.2780  -3.9972  -3.8055  -3.7874  -3.7531  -3.7381
    -3.7194  -3.6646  -3.6244  -3.4807  -3.4344  -3.3473  -3.3065  -3.2870
    -3.2658  -3.2236  -3.1909  -3.1698  -3.1571  -3.1344  -3.1108  -3.0810
    -3.0604  -3.0212  -3.0146  -2.9636  -2.9201  -2.8865  -2.8698  -2.8322
    -2.8246  -2.7970  -2.7834  -2.7688  -2.7382  -2.7151  -2.6877  -2.6649
    -2.6197  -2.5968  -2.5782  -2.5662  -2.5307  -2.5147  -2.4981  -2.4751
    -2.4643  -2.4301  -2.4016  -2.3767  -2.3518  -2.3426  -2.3098  -2.2994
    -2.2748  -2.2514  -2.2385  -2.2298  -2.2178  -2.1917  -2.1790  -2.1697
    -2.1609  -2.1450  -2.1277  -2.0970  -2.0885  -2.0817  -2.0593  -2.0427
    -2.0358  -2.0239  -2.0202  -2.0149  -1.9897  -1.9738  -1.9634  -1.9584
    -1.9531  -1.9409  -1.9276  -1.9219  -1.9122  -1.8973  -1.8761  -1.8598
    -1.8462  -1.8263  -1.8186  -1.7886  -1.7812  -1.7656  -1.7432  -1.7249
    -1.7128  -1.6929  -1.6886  -1.6698  -1.6463  -1.6253  -1.6032  -1.5920
    -1.5785  -1.5644  -1.5534  -1.5357  -1.5219  -1.5001  -1.4881  -1.4748
    -1.4625  -1.4452  -1.4322  -1.4248  -1.4171  -1.4049  -1.3884  -1.3619
    -1.3571  -1.3439  -1.3349  -1.3186  -1.3088  -1.2906  -1.2759  -1.2669
    -1.2533  -1.2490  -1.2392  -1.2222  -1.2100  -1.1954  -1.1767  -1.1654
    -1.1563  -1.1411  -1.1247  -1.1049  -1.1001  -1.0816  -1.0728  -1.0563
    -1.0386  -1.0323  -1.0099  -1.0002  -0.9934  -0.9868  -0.9690  -0.9607
    -0.9425  -0.9360  -0.9249  -0.9116  -0.8971  -0.8847  -0.8755  -0.8559
    -0.8504  -0.8393  -0.8324  -0.8171  -0.8130  -0.8060  -0.7965  -0.7890
    -0.7875  -0.7730  -0.7552  -0.7414  -0.7251  -0.7138  -0.6857  -0.6718
    -0.6222  -0.5948  -0.5904  -0.4529  -0.4407  -0.3013  -0.2430  -0.1220
     0.0531   0.2817   0.4083   0.5138   0.7298   1.0269   1.1277   1.2942
     1.3354   1.6497   1.7430   1.8902   2.2118   2.3558   2.5802

          k = 0.0320-0.0784 0.0000 ( 35966 PWs)   bands (ev):

   -19.3836 -11.6149  -7.0180  -6.6654  -6.6365  -6.4917  -6.3329  -6.2817
    -6.2628  -5.9267  -5.7171  -5.6335  -5.5338  -5.5040  -5.4779  -5.2653
    -4.5689  -4.5335  -4.2415  -4.1643  -4.0467  -4.0418  -3.7874  -3.7393
    -3.7050  -3.6768  -3.5633  -3.5453  -3.4049  -3.3371  -3.3053  -3.2613
    -3.2540  -3.2023  -3.1683  -3.1388  -3.1297  -3.0927  -3.0495  -3.0352
    -3.0169  -3.0095  -2.9977  -2.9809  -2.9662  -2.9465  -2.9365  -2.8664
    -2.8356  -2.7948  -2.7763  -2.7259  -2.7147  -2.6981  -2.6652  -2.6425
    -2.6212  -2.6140  -2.5924  -2.5642  -2.5464  -2.5136  -2.4946  -2.4540
    -2.4448  -2.4055  -2.3946  -2.3701  -2.3595  -2.3370  -2.3079  -2.2792
    -2.2692  -2.2567  -2.2373  -2.2025  -2.1898  -2.1627  -2.1497  -2.1376
    -2.1220  -2.1160  -2.1070  -2.0973  -2.0631  -2.0587  -2.0521  -2.0291
    -2.0150  -2.0097  -1.9908  -1.9820  -1.9794  -1.9721  -1.9557  -1.9326
    -1.9207  -1.9136  -1.9038  -1.8922  -1.8842  -1.8810  -1.8698  -1.8669
    -1.8582  -1.8488  -1.8304  -1.8175  -1.7878  -1.7646  -1.7593  -1.7336
    -1.6972  -1.6719  -1.6669  -1.6564  -1.6347  -1.6182  -1.6086  -1.6002
    -1.5898  -1.5723  -1.5539  -1.5398  -1.5246  -1.5179  -1.5095  -1.4946
    -1.4761  -1.4592  -1.4452  -1.4180  -1.4068  -1.3831  -1.3604  -1.3513
    -1.3442  -1.3325  -1.3220  -1.3087  -1.2903  -1.2737  -1.2584  -1.2395
    -1.2339  -1.2252  -1.2180  -1.2122  -1.1988  -1.1730  -1.1610  -1.1455
    -1.1281  -1.1089  -1.1004  -1.0845  -1.0709  -1.0538  -1.0454  -1.0339
    -1.0209  -1.0139  -1.0022  -0.9918  -0.9645  -0.9557  -0.9502  -0.9335
    -0.9232  -0.9124  -0.9075  -0.9036  -0.8945  -0.8804  -0.8721  -0.8664
    -0.8589  -0.8472  -0.8433  -0.8274  -0.8171  -0.8054  -0.7969  -0.7877
    -0.7732  -0.7620  -0.7536  -0.7461  -0.7285  -0.7220  -0.7038  -0.6953
    -0.6639  -0.6589  -0.6429  -0.6091  -0.5402  -0.3569  -0.3144  -0.2298
    -0.1768  -0.0622   0.0424   0.2399   0.4473   1.1367   1.2778   1.3400
     1.4173   1.5110   1.7261   2.1594   2.6772   2.7951   2.9014

          k = 0.0320-0.0392 0.0000 ( 36036 PWs)   bands (ev):

   -19.3837 -11.6155  -7.3573  -6.9766  -6.5223  -6.3338  -6.3041  -6.2834
    -6.1953  -6.1160  -5.8571  -5.6513  -5.5641  -5.4915  -5.0409  -4.7197
    -4.5788  -4.4303  -4.2775  -3.9990  -3.8086  -3.7903  -3.7438  -3.7379
    -3.7126  -3.6712  -3.6296  -3.4829  -3.4238  -3.3483  -3.3197  -3.2839
    -3.2681  -3.2242  -3.1957  -3.1679  -3.1563  -3.1324  -3.1092  -3.0771
    -3.0538  -3.0216  -3.0072  -2.9639  -2.9152  -2.8847  -2.8726  -2.8331
    -2.8257  -2.7975  -2.7858  -2.7665  -2.7350  -2.7180  -2.6910  -2.6805
    -2.6417  -2.5865  -2.5726  -2.5576  -2.5320  -2.5133  -2.5034  -2.4834
    -2.4556  -2.4440  -2.4017  -2.3794  -2.3469  -2.3347  -2.3222  -2.3023
    -2.2799  -2.2497  -2.2334  -2.2226  -2.2104  -2.1975  -2.1881  -2.1699
    -2.1597  -2.1410  -2.1218  -2.0964  -2.0824  -2.0727  -2.0536  -2.0497
    -2.0396  -2.0266  -2.0126  -2.0041  -1.9895  -1.9721  -1.9700  -1.9588
    -1.9482  -1.9415  -1.9242  -1.9200  -1.9062  -1.8922  -1.8791  -1.8606
    -1.8446  -1.8288  -1.8097  -1.7996  -1.7763  -1.7640  -1.7540  -1.7344
    -1.7120  -1.7002  -1.6818  -1.6720  -1.6389  -1.6264  -1.6179  -1.5898
    -1.5752  -1.5670  -1.5556  -1.5408  -1.5338  -1.5092  -1.4898  -1.4764
    -1.4696  -1.4440  -1.4351  -1.4269  -1.4125  -1.4003  -1.3849  -1.3655
    -1.3507  -1.3457  -1.3248  -1.3189  -1.3049  -1.2926  -1.2733  -1.2645
    -1.2514  -1.2454  -1.2328  -1.2198  -1.2054  -1.1858  -1.1789  -1.1667
    -1.1523  -1.1390  -1.1230  -1.1157  -1.0923  -1.0871  -1.0604  -1.0461
    -1.0400  -1.0291  -1.0140  -1.0092  -0.9958  -0.9797  -0.9693  -0.9558
    -0.9507  -0.9335  -0.9257  -0.9103  -0.8960  -0.8899  -0.8710  -0.8586
    -0.8448  -0.8428  -0.8314  -0.8160  -0.8111  -0.8002  -0.7967  -0.7952
    -0.7791  -0.7711  -0.7551  -0.7474  -0.7294  -0.7185  -0.7081  -0.6543
    -0.6365  -0.6199  -0.5739  -0.4571  -0.4340  -0.3099  -0.2323  -0.1135
     0.0368   0.2878   0.4014   0.4899   0.7306   1.0662   1.1242   1.2684
     1.3439   1.6490   1.7398   1.9147   2.2064   2.3428   2.5834

          k =-0.0640 0.0000 0.0000 ( 36024 PWs)   bands (ev):

   -19.3837 -11.6159  -7.1554  -7.1110  -6.9372  -6.4997  -6.3284  -6.2834
    -6.2671  -6.0814  -5.9750  -5.7984  -5.6277  -5.4014  -4.5504  -4.3240
    -4.1268  -4.0944  -4.0902  -4.0744  -3.6571  -3.6398  -3.6201  -3.6141
    -3.5485  -3.5239  -3.4797  -3.4447  -3.4220  -3.4173  -3.3849  -3.3497
    -3.2942  -3.2687  -3.2645  -3.2505  -3.2019  -3.1900  -3.1802  -3.1307
    -3.1058  -3.1036  -3.0900  -3.0608  -3.0208  -2.9188  -2.8992  -2.8968
    -2.8670  -2.8255  -2.7981  -2.7804  -2.7533  -2.6747  -2.6207  -2.6013
    -2.5708  -2.5655  -2.5495  -2.5249  -2.5123  -2.4980  -2.4882  -2.4791
    -2.4722  -2.4318  -2.4216  -2.4090  -2.3981  -2.3894  -2.3806  -2.3578
    -2.3418  -2.3279  -2.2774  -2.2729  -2.2644  -2.2533  -2.2283  -2.2126
    -2.1767  -2.1718  -2.1553  -2.1287  -2.1117  -2.1087  -2.1073  -2.0915
    -2.0807  -2.0697  -2.0394  -2.0257  -2.0120  -1.9959  -1.9893  -1.9814
    -1.9521  -1.9465  -1.9288  -1.9235  -1.9098  -1.8880  -1.8685  -1.8497
    -1.8248  -1.8000  -1.7963  -1.7854  -1.7719  -1.7690  -1.7426  -1.7389
    -1.7186  -1.7057  -1.7004  -1.6814  -1.6722  -1.6556  -1.6493  -1.6429
    -1.6395  -1.6175  -1.6123  -1.6010  -1.5806  -1.5593  -1.5526  -1.5166
    -1.4982  -1.4830  -1.4727  -1.4630  -1.4522  -1.4491  -1.4396  -1.4182
    -1.3963  -1.3719  -1.3444  -1.3253  -1.3153  -1.3074  -1.2855  -1.2754
    -1.2565  -1.2465  -1.2350  -1.2332  -1.2112  -1.1954  -1.1892  -1.1751
    -1.1706  -1.1647  -1.1280  -1.1147  -1.1034  -1.0964  -1.0844  -1.0715
    -1.0603  -1.0468  -1.0356  -1.0084  -0.9923  -0.9757  -0.9470  -0.9390
    -0.9265  -0.9123  -0.9097  -0.8995  -0.8855  -0.8688  -0.8550  -0.8512
    -0.8470  -0.8368  -0.8333  -0.8160  -0.8063  -0.7918  -0.7830  -0.7741
    -0.7665  -0.7548  -0.7437  -0.7120  -0.7088  -0.7005  -0.6673  -0.5325
    -0.4798  -0.3281  -0.3140  -0.2822  -0.2367   0.0751   0.2352   0.2594
     0.2925   0.3491   0.4002   0.5685   0.6097   1.0556   1.1261   1.3796
     1.5386   1.6751   1.7076   1.7716   1.8841   2.2013   2.4256

          k =-0.0640 0.0392 0.0000 ( 36040 PWs)   bands (ev):

   -19.3837 -11.6154  -7.0301  -6.8889  -6.8332  -6.4859  -6.3310  -6.2860
    -6.2676  -5.9901  -5.8214  -5.7070  -5.6284  -5.3642  -5.1522  -5.1258
    -4.5131  -4.2885  -4.1187  -4.0819  -3.7652  -3.7577  -3.6173  -3.5908
    -3.5865  -3.5485  -3.5386  -3.5084  -3.4715  -3.4274  -3.4023  -3.3813
    -3.3081  -3.2445  -3.2391  -3.1830  -3.1674  -3.1441  -3.1263  -3.0827
    -3.0626  -3.0464  -3.0255  -2.9997  -2.9388  -2.8943  -2.8368  -2.8180
    -2.8105  -2.7828  -2.7680  -2.7310  -2.7144  -2.6970  -2.6645  -2.6547
    -2.6450  -2.6133  -2.5840  -2.5606  -2.5309  -2.5114  -2.4807  -2.4691
    -2.4582  -2.4381  -2.4229  -2.4090  -2.3975  -2.3699  -2.3476  -2.3186
    -2.2991  -2.2901  -2.2858  -2.2665  -2.2524  -2.2335  -2.2238  -2.1983
    -2.1848  -2.1501  -2.1351  -2.0863  -2.0818  -2.0749  -2.0706  -2.0507
    -2.0441  -2.0313  -2.0226  -2.0168  -2.0116  -1.9968  -1.9723  -1.9502
    -1.9361  -1.9190  -1.9126  -1.8998  -1.8872  -1.8792  -1.8670  -1.8561
    -1.8380  -1.8246  -1.8146  -1.7947  -1.7874  -1.7759  -1.7643  -1.7396
    -1.7259  -1.7109  -1.6888  -1.6674  -1.6513  -1.6430  -1.6314  -1.6208
    -1.6101  -1.5836  -1.5679  -1.5376  -1.5231  -1.5024  -1.4907  -1.4817
    -1.4708  -1.4587  -1.4498  -1.4386  -1.4296  -1.4211  -1.4116  -1.4024
    -1.3862  -1.3647  -1.3600  -1.3430  -1.3301  -1.3163  -1.3008  -1.2813
    -1.2565  -1.2538  -1.2309  -1.2150  -1.2043  -1.1920  -1.1765  -1.1639
    -1.1394  -1.1298  -1.1219  -1.1092  -1.1031  -1.0907  -1.0864  -1.0712
    -1.0618  -1.0267  -1.0128  -1.0073  -0.9983  -0.9861  -0.9749  -0.9522
    -0.9317  -0.9239  -0.9159  -0.9031  -0.8884  -0.8786  -0.8561  -0.8429
    -0.8351  -0.8198  -0.8092  -0.7980  -0.7943  -0.7878  -0.7768  -0.7715
    -0.7625  -0.7541  -0.7440  -0.7279  -0.7219  -0.7115  -0.7020  -0.6744
    -0.6502  -0.5541  -0.5327  -0.4668  -0.4514  -0.0998   0.0886   0.4535
     0.5238   0.5574   0.6179   0.9237   0.9498   0.9914   1.0656   1.4179
     1.6215   1.7355   1.7978   1.8181   1.9079   2.0279   2.1721

          k =-0.0640-0.0784 0.0000 ( 36100 PWs)   bands (ev):

   -19.3836 -11.6150  -6.9900  -6.5361  -6.3510  -6.3334  -6.3250  -6.1958
    -6.1813  -6.1683  -6.1451  -5.8777  -5.6663  -5.5662  -5.1859  -5.1181
    -5.0960  -4.8887  -4.0062  -3.9235  -3.8988  -3.8451  -3.8379  -3.8012
    -3.5636  -3.5209  -3.5163  -3.4510  -3.4447  -3.4386  -3.4165  -3.3880
    -3.3381  -3.2970  -3.2278  -3.1571  -3.1265  -3.1103  -3.0741  -3.0404
    -3.0237  -3.0044  -2.9715  -2.9682  -2.9405  -2.9222  -2.8890  -2.8800
    -2.8337  -2.8136  -2.7948  -2.7885  -2.6945  -2.6509  -2.6315  -2.5787
    -2.5525  -2.5473  -2.5434  -2.5301  -2.5218  -2.5163  -2.5110  -2.5086
    -2.4902  -2.4824  -2.4798  -2.4638  -2.3831  -2.3538  -2.3060  -2.2882
    -2.2808  -2.2692  -2.2320  -2.2045  -2.1954  -2.1870  -2.1696  -2.1592
    -2.1282  -2.1191  -2.1080  -2.0932  -2.0793  -2.0541  -2.0368  -2.0306
    -2.0236  -2.0193  -2.0123  -2.0079  -1.9844  -1.9795  -1.9583  -1.9284
    -1.9149  -1.9034  -1.8929  -1.8758  -1.8706  -1.8581  -1.8510  -1.8391
    -1.8348  -1.8286  -1.8070  -1.8064  -1.7893  -1.7814  -1.7750  -1.7581
    -1.7377  -1.7161  -1.7064  -1.6967  -1.6869  -1.6393  -1.6275  -1.6193
    -1.6181  -1.5995  -1.5880  -1.5704  -1.5645  -1.5576  -1.5348  -1.5253
    -1.5146  -1.4911  -1.4762  -1.4636  -1.4548  -1.4282  -1.3981  -1.3850
    -1.3332  -1.3196  -1.3129  -1.2996  -1.2897  -1.2859  -1.2589  -1.2455
    -1.2384  -1.2187  -1.1952  -1.1823  -1.1634  -1.1502  -1.1423  -1.1364
    -1.1290  -1.0950  -1.0893  -1.0786  -1.0733  -1.0517  -1.0414  -1.0320
    -1.0199  -1.0145  -0.9975  -0.9833  -0.9751  -0.9555  -0.9498  -0.9438
    -0.9230  -0.9166  -0.9085  -0.8976  -0.8907  -0.8721  -0.8584  -0.8551
    -0.8408  -0.8287  -0.8261  -0.8174  -0.8012  -0.7858  -0.7759  -0.7648
    -0.7496  -0.7432  -0.7203  -0.7124  -0.7086  -0.6963  -0.6889  -0.6670
    -0.6547  -0.6339  -0.6305  -0.6025  -0.5854  -0.4935  -0.3475   0.4595
     0.5142   0.6051   0.7791   0.8412   0.9012   0.9357   1.0081   1.2072
     1.3227   1.7772   1.8039   2.1128   2.1755   2.1991   2.3404

     the Fermi energy is     0.8687 ev

!    total energy              =   -4330.11732041 Ry
     Harris-Foulkes estimate   =   -4330.11732430 Ry
     estimated scf accuracy    <       0.00000456 Ry

     The total energy is the sum of the following terms:

     one-electron contribution =  -48447.43330191 Ry
     hartree contribution      =   24656.45954090 Ry
     xc contribution           =   -1494.82051877 Ry
     ewald contribution        =   20955.67719441 Ry
     electric field correction =       0.00006186 Ry
     smearing contrib. (-TS)   =      -0.00029691 Ry

     convergence has been achieved in   5 iterations

     Forces acting on atoms (Ry/au):


     negative rho (up, down):  3.336E-03 0.000E+00
     atom    1 type  1   force =    -0.00088779   -0.00364801    0.00347022
     atom    2 type  2   force =    -0.00371352    0.00146978    0.00451302
     atom    3 type  2   force =     0.00510908   -0.00049552   -0.00106576
     atom    4 type  2   force =     0.00078016   -0.00026292   -0.00198505
     atom    5 type  2   force =     0.00113962    0.00081837   -0.00026932
     atom    6 type  2   force =     0.00212812    0.00052387    0.00180572
     atom    7 type  2   force =    -0.00027710   -0.00070269    0.00093728
     atom    8 type  2   force =     0.00021205   -0.00044165   -0.00221480
     atom    9 type  2   force =     0.00013554   -0.00073601   -0.00022195
     atom   10 type  2   force =     0.00073828    0.00021847   -0.00068268
     atom   11 type  2   force =     0.00067354   -0.00046097    0.00109726
     atom   12 type  2   force =     0.00288747   -0.00038365    0.00179099
     atom   13 type  2   force =    -0.00038182   -0.00062462   -0.00059209
     atom   14 type  2   force =     0.00006485    0.00077621   -0.00087534
     atom   15 type  2   force =     0.00104409   -0.00086924   -0.00047506
     atom   16 type  2   force =    -0.00019529    0.00042704   -0.00081856
     atom   17 type  2   force =     0.00015950    0.00101669   -0.00128237
     atom   18 type  2   force =     0.00016771   -0.00026341   -0.00033906
     atom   19 type  2   force =     0.00039445    0.00140854   -0.00059216
     atom   20 type  2   force =    -0.00066910    0.00107028   -0.00225204
     atom   21 type  2   force =     0.00137161    0.00101686    0.00031865
     atom   22 type  2   force =     0.00009122    0.00329533   -0.00330747
     atom   23 type  2   force =    -0.00050112    0.00308126   -0.00264297
     atom   24 type  2   force =     0.00049458    0.00233188   -0.00409877
     atom   25 type  2   force =     0.00032940   -0.00424673   -0.00845918
     atom   26 type  2   force =    -0.00010014   -0.00367842   -0.01003382
     atom   27 type  2   force =    -0.00000914   -0.00383116   -0.00945290
     atom   28 type  2   force =    -0.00058696   -0.00247708   -0.00620985
     atom   29 type  2   force =     0.00040022   -0.00214046   -0.00586157
     atom   30 type  2   force =    -0.00013806   -0.00190097   -0.00547700
     atom   31 type  2   force =     0.00037186   -0.00177855    0.00124625
     atom   32 type  2   force =    -0.00080590   -0.00316267    0.00225499
     atom   33 type  2   force =     0.00038103   -0.00252114    0.00114739
     atom   34 type  2   force =     0.00124741    0.00350771    0.01345058
     atom   35 type  2   force =    -0.00044677    0.00460890    0.01250606
     atom   36 type  2   force =    -0.00101997    0.00396095    0.01242549
     atom   37 type  3   force =     0.01345785    0.00220017    0.00978593
     atom   38 type  4   force =    -0.02356604    0.00683964    0.00802605
     atom   39 type  5   force =     0.00053203    0.00104561   -0.00041585
     atom   40 type  5   force =    -0.00477565   -0.00311421    0.00433675
     atom   41 type  5   force =     0.00376269   -0.00187749   -0.00948701

     Total force =     0.048109     Total SCF correction =     0.009633
     SCF correction compared to forces is large: reduce conv_thr to get better values
 !ASE
     Check: negative starting charge=   -0.002944
     NEW-OLD atomic charge density approx. for the potential

     Check: negative/imaginary core charge=   -0.000012    0.000000
     Check: negative starting charge=   -0.002941

     negative rho (up, down):  3.291E-03 0.000E+00
 
     Adding external electric field

     Computed dipole along edir(3) : 
        Dipole                0.2171 Ry au,          0.5519 Debye
        Dipole field          0.0003 Ry au
 
        Potential amp.       -0.0299 Ry
        Total length         52.5607 bohr
 

     total cpu time spent up to now is    53635.3 secs

     per-process dynamical memory:   319.8 Mb

     Self-consistent Calculation

     iteration #  1     ecut=    36.75 Ry     beta=0.10
     Davidson diagonalization with overlap
     ethr =  6.39E-09,  avg # of iterations =  8.0

     negative rho (up, down):  3.295E-03 0.000E+00
 
     Adding external electric field

     Computed dipole along edir(3) : 
        Dipole                0.2174 Ry au,          0.5526 Debye
        Dipole field          0.0003 Ry au
 
        Potential amp.       -0.0300 Ry
        Total length         52.5607 bohr
 

     total cpu time spent up to now is    54062.1 secs

     total energy              =   -4330.11600438 Ry
     Harris-Foulkes estimate   =   -4330.11602081 Ry
     estimated scf accuracy    <       0.00339667 Ry

     iteration #  2     ecut=    36.75 Ry     beta=0.10
     Davidson diagonalization with overlap
     ethr =  8.28E-07,  avg # of iterations =  1.0
