       N       E                     dE             d eps       ncg     rms          rms(c)
DAV:   1     0.552659353879E+04    0.55266E+04   -0.21076E+05  5616   0.167E+03
DAV:   2     0.661363379413E+03   -0.48652E+04   -0.45213E+04  5168   0.437E+02
DAV:   3    -0.235169464514E+03   -0.89653E+03   -0.80345E+03  5704   0.192E+02
DAV:   4    -0.316184559769E+03   -0.81015E+02   -0.79192E+02  6072   0.537E+01
DAV:   5    -0.318107345330E+03   -0.19228E+01   -0.19092E+01  6264   0.916E+00    0.102E+02
DAV:   6    -0.453011200203E+03   -0.13490E+03   -0.55699E+02  5864   0.117E+02    0.159E+02
DAV:   7    -0.286414435449E+03    0.16660E+03   -0.26546E+02  6072   0.791E+01    0.582E+01
DAV:   8    -0.289668446419E+03   -0.32540E+01   -0.81655E+01  6485   0.298E+01    0.299E+01
DAV:   9    -0.302363231733E+03   -0.12695E+02   -0.28324E+01  6424   0.250E+01    0.388E+01
DAV:  10    -0.300760419918E+03    0.16028E+01   -0.39023E+01  6056   0.360E+01    0.286E+01
DAV:  11    -0.299263491402E+03    0.14969E+01   -0.11484E+01  6069   0.155E+01    0.103E+01
DAV:  12    -0.299912196312E+03   -0.64870E+00   -0.44058E+00  6224   0.109E+01    0.144E+01
DAV:  13    -0.299730290977E+03    0.18191E+00   -0.64012E+00  5952   0.692E+00    0.674E+00
DAV:  14    -0.299773734298E+03   -0.43443E-01   -0.19143E+00  5952   0.565E+00    0.588E+00
DAV:  15    -0.299932025326E+03   -0.15829E+00   -0.16341E+00  5984   0.465E+00    0.549E+00
DAV:  16    -0.299821408746E+03    0.11062E+00   -0.62436E-01  5920   0.409E+00    0.211E+00
DAV:  17    -0.299820617085E+03    0.79166E-03   -0.94499E-02  5728   0.118E+00    0.788E-01
DAV:  18    -0.299829272940E+03   -0.86559E-02   -0.14221E-02  5848   0.320E-01    0.580E-01
DAV:  19    -0.299834634932E+03   -0.53620E-02   -0.21701E-03  6584   0.162E-01    0.443E-01
DAV:  20    -0.299837801658E+03   -0.31667E-02   -0.10623E-03  6456   0.122E-01    0.326E-01
DAV:  21    -0.299840544953E+03   -0.27433E-02   -0.11244E-03  6584   0.121E-01    0.229E-01
DAV:  22    -0.299843056812E+03   -0.25119E-02   -0.14812E-03  6664   0.144E-01    0.139E-01
DAV:  23    -0.299844620060E+03   -0.15632E-02   -0.11753E-03  6888   0.943E-02    0.121E-01
DAV:  24    -0.299845049362E+03   -0.42930E-03   -0.25027E-04  5664   0.362E-02    0.108E-01
DAV:  25    -0.299845560447E+03   -0.51108E-03   -0.23796E-04  5624   0.529E-02    0.878E-02
DAV:  26    -0.299846127828E+03   -0.56738E-03   -0.14663E-03  6192   0.123E-01    0.574E-02
DAV:  27    -0.299846208863E+03   -0.81035E-04   -0.94644E-04  6648   0.867E-02    0.385E-02
DAV:  28    -0.299846225646E+03   -0.16783E-04   -0.16192E-04  5392   0.299E-02    0.214E-02
DAV:  29    -0.299846182419E+03    0.43226E-04   -0.94215E-06  3400   0.909E-03    0.154E-02
DAV:  30    -0.299846132719E+03    0.49700E-04   -0.31392E-05  3416   0.185E-02    0.110E-02
DAV:  31    -0.299846142736E+03   -0.10017E-04   -0.59151E-06  2928   0.745E-03    0.430E-03
DAV:  32    -0.299846140000E+03    0.27354E-05   -0.99987E-07  2800   0.261E-03
   1 F= -.29984614E+03 E0= -.29984614E+03  d E =-.299846E+03  mag=     0.2005
       N       E                     dE             d eps       ncg     rms          rms(c)
DAV:   1    -0.299788157376E+03    0.57985E-01   -0.51487E+00  6956   0.171E+01    0.139E+00
DAV:   2    -0.299915096790E+03   -0.12694E+00   -0.13106E+00  5736   0.219E+00    0.723E-01
DAV:   3    -0.299923589620E+03   -0.84928E-02   -0.80384E-02  6152   0.138E+00    0.159E+00
DAV:   4    -0.299914675690E+03    0.89139E-02   -0.47290E-02  6064   0.103E+00    0.481E-01
DAV:   5    -0.299914221452E+03    0.45424E-03   -0.14526E-02  6424   0.493E-01    0.656E-01
DAV:   6    -0.299913516723E+03    0.70473E-03   -0.12348E-02  6320   0.459E-01    0.383E-01
DAV:   7    -0.299913984281E+03   -0.46756E-03   -0.34532E-03  6304   0.293E-01    0.245E-01
DAV:   8    -0.299912470113E+03    0.15142E-02   -0.27208E-03  6352   0.291E-01    0.250E-01
DAV:   9    -0.299913200072E+03   -0.72996E-03   -0.10437E-03  6320   0.185E-01    0.604E-02
DAV:  10    -0.299912974288E+03    0.22578E-03   -0.23641E-04  6768   0.813E-02    0.782E-02
DAV:  11    -0.299913214930E+03   -0.24064E-03   -0.14135E-04  5560   0.659E-02    0.362E-02
DAV:  12    -0.299913234923E+03   -0.19994E-04   -0.15369E-05  3128   0.114E-02    0.193E-02
DAV:  13    -0.299913242321E+03   -0.73979E-05   -0.76797E-06  2824   0.783E-03
   2 F= -.29991324E+03 E0= -.29991324E+03  d E =-.671023E-01  mag=     0.1857
       N       E                     dE             d eps       ncg     rms          rms(c)
DAV:   1    -0.299840820891E+03    0.72414E-01   -0.29133E+00  7563   0.165E+01    0.984E-01
DAV:   2    -0.299941066065E+03   -0.10025E+00   -0.10246E+00  5560   0.189E+00    0.553E-01
DAV:   3    -0.299946175042E+03   -0.51090E-02   -0.60604E-02  6328   0.110E+00    0.119E+00
DAV:   4    -0.299940944690E+03    0.52304E-02   -0.28068E-02  6104   0.757E-01    0.367E-01
DAV:   5    -0.299943055777E+03   -0.21111E-02   -0.81088E-03  6120   0.374E-01    0.502E-01
DAV:   6    -0.299940994132E+03    0.20616E-02   -0.51861E-03  6192   0.291E-01    0.227E-01
DAV:   7    -0.299941324414E+03   -0.33028E-03   -0.16120E-03  6664   0.227E-01    0.202E-01
DAV:   8    -0.299941148279E+03    0.17614E-03   -0.13545E-03  6312   0.204E-01    0.130E-01
DAV:   9    -0.299941089943E+03    0.58336E-04   -0.29850E-04  6096   0.104E-01    0.320E-02
DAV:  10    -0.299940947428E+03    0.14251E-03   -0.46846E-05  4944   0.287E-02    0.341E-02
DAV:  11    -0.299941157869E+03   -0.21044E-03   -0.30651E-05  3840   0.334E-02    0.280E-02
DAV:  12    -0.299941074555E+03    0.83314E-04   -0.84297E-06  2832   0.155E-02    0.868E-03
DAV:  13    -0.299941073734E+03    0.82135E-06   -0.68529E-06  2824   0.575E-03
   3 F= -.29994107E+03 E0= -.29994107E+03  d E =-.278314E-01  mag=     0.1682
       N       E                     dE             d eps       ncg     rms          rms(c)
DAV:   1    -0.299806827075E+03    0.13425E+00   -0.39167E+00  7704   0.209E+01    0.113E+00
DAV:   2    -0.299958770734E+03   -0.15194E+00   -0.15593E+00  5496   0.232E+00    0.625E-01
DAV:   3    -0.299964756487E+03   -0.59858E-02   -0.69693E-02  6536   0.108E+00    0.116E+00
DAV:   4    -0.299960209461E+03    0.45470E-02   -0.30566E-02  6112   0.766E-01    0.438E-01
DAV:   5    -0.299962184497E+03   -0.19750E-02   -0.10392E-02  6088   0.407E-01    0.560E-01
DAV:   6    -0.299959848108E+03    0.23364E-02   -0.68795E-03  6024   0.368E-01    0.309E-01
DAV:   7    -0.299960226122E+03   -0.37801E-03   -0.19766E-03  6376   0.239E-01    0.188E-01
DAV:   8    -0.299960023232E+03    0.20289E-03   -0.19609E-03  6512   0.239E-01    0.231E-01
DAV:   9    -0.299959906813E+03    0.11642E-03   -0.10907E-03  6208   0.169E-01    0.403E-02
DAV:  10    -0.299959961415E+03   -0.54603E-04   -0.60996E-05  5536   0.226E-02    0.336E-02
DAV:  11    -0.299959717369E+03    0.24405E-03   -0.33114E-05  3952   0.362E-02    0.426E-02
DAV:  12    -0.299959915609E+03   -0.19824E-03   -0.22075E-05  3632   0.302E-02    0.112E-02
DAV:  13    -0.299959882977E+03    0.32631E-04   -0.12931E-05  3184   0.778E-03    0.455E-03
DAV:  14    -0.299959878095E+03    0.48818E-05   -0.23289E-06  2752   0.356E-03
   4 F= -.29995988E+03 E0= -.29995988E+03  d E =-.188044E-01  mag=     0.1558
       N       E                     dE             d eps       ncg     rms          rms(c)
DAV:   1    -0.299912212854E+03    0.47670E-01   -0.14725E+00  7712   0.129E+01    0.685E-01
DAV:   2    -0.299968691139E+03   -0.56478E-01   -0.58212E-01  5488   0.142E+00    0.447E-01
DAV:   3    -0.299973694082E+03   -0.50029E-02   -0.43569E-02  6448   0.823E-01    0.984E-01
DAV:   4    -0.299969617653E+03    0.40764E-02   -0.24397E-02  6112   0.601E-01    0.281E-01
DAV:   5    -0.299970414817E+03   -0.79716E-03   -0.36839E-03  6104   0.288E-01    0.359E-01
DAV:   6    -0.299969749357E+03    0.66546E-03   -0.20727E-03  6256   0.251E-01    0.151E-01
DAV:   7    -0.299970701530E+03   -0.95217E-03   -0.69424E-04  6576   0.132E-01    0.141E-01
DAV:   8    -0.299969751101E+03    0.95043E-03   -0.76714E-04  6112   0.155E-01    0.127E-01
DAV:   9    -0.299970407169E+03   -0.65607E-03   -0.33335E-04  6080   0.103E-01    0.347E-02
DAV:  10    -0.299970360385E+03    0.46784E-04   -0.39900E-05  4528   0.227E-02    0.218E-02
DAV:  11    -0.299970421617E+03   -0.61232E-04   -0.30693E-05  3320   0.140E-02    0.232E-02
DAV:  12    -0.299970380139E+03    0.41479E-04   -0.12604E-05  2800   0.179E-02    0.185E-02
DAV:  13    -0.299970453452E+03   -0.73314E-04   -0.75539E-06  2744   0.152E-02    0.140E-02
DAV:  14    -0.299970483944E+03   -0.30492E-04   -0.67700E-06  2760   0.930E-03    0.874E-03
DAV:  15    -0.299970534435E+03   -0.50491E-04   -0.10406E-05  2760   0.792E-03    0.488E-03
DAV:  16    -0.299970569548E+03   -0.35114E-04   -0.88549E-06  2728   0.632E-03    0.311E-03
DAV:  17    -0.299970568975E+03    0.57299E-06   -0.17744E-06  2704   0.329E-03
   5 F= -.29997057E+03 E0= -.29997057E+03  d E =-.106909E-01  mag=     0.1386
       N       E                     dE             d eps       ncg     rms          rms(c)
DAV:   1    -0.299922682335E+03    0.47887E-01   -0.14142E+00  7704   0.128E+01    0.684E-01
DAV:   2    -0.299979897904E+03   -0.57216E-01   -0.57412E-01  5445   0.142E+00    0.522E-01
DAV:   3    -0.299982490188E+03   -0.25923E-02   -0.61712E-02  6424   0.958E-01    0.118E+00
DAV:   4    -0.299978811165E+03    0.36790E-02   -0.24994E-02  6080   0.701E-01    0.274E-01
DAV:   5    -0.299979884579E+03   -0.10734E-02   -0.24875E-03  6424   0.241E-01    0.281E-01
DAV:   6    -0.299979282930E+03    0.60165E-03   -0.16132E-03  6360   0.171E-01    0.144E-01
DAV:   7    -0.299979637409E+03   -0.35448E-03   -0.56214E-04  6832   0.116E-01    0.122E-01
DAV:   8    -0.299979616745E+03    0.20664E-04   -0.52536E-04  6192   0.137E-01    0.910E-02
DAV:   9    -0.299979449999E+03    0.16675E-03   -0.22034E-04  5880   0.835E-02    0.523E-02
DAV:  10    -0.299979742486E+03   -0.29249E-03   -0.73923E-05  5192   0.513E-02    0.416E-02
DAV:  11    -0.299979511129E+03    0.23136E-03   -0.35958E-05  4040   0.378E-02    0.287E-02
DAV:  12    -0.299979608640E+03   -0.97511E-04   -0.29461E-05  3304   0.197E-02    0.170E-02
DAV:  13    -0.299979597562E+03    0.11078E-04   -0.37859E-05  3688   0.158E-02    0.116E-02
DAV:  14    -0.299979611201E+03   -0.13639E-04   -0.12800E-05  2832   0.725E-03    0.114E-02
DAV:  15    -0.299979618021E+03   -0.68200E-05   -0.38759E-06  2704   0.441E-03
   6 F= -.29997962E+03 E0= -.29997962E+03  d E =-.904905E-02  mag=     0.0429
       N       E                     dE             d eps       ncg     rms          rms(c)
DAV:   1    -0.299957476285E+03    0.22135E-01   -0.67959E-01  7736   0.917E+00    0.468E-01
DAV:   2    -0.299984890193E+03   -0.27414E-01   -0.28589E-01  5320   0.980E-01    0.224E-01
DAV:   3    -0.299986821048E+03   -0.19309E-02   -0.73164E-03  7016   0.272E-01    0.236E-01
DAV:   4    -0.299985090658E+03    0.17304E-02   -0.14812E-03  6264   0.232E-01    0.184E-01
DAV:   5    -0.299985626131E+03   -0.53547E-03   -0.30802E-04  6536   0.106E-01    0.980E-02
DAV:   6    -0.299985740604E+03   -0.11447E-03   -0.58835E-04  6584   0.105E-01    0.140E-01
DAV:   7    -0.299985731660E+03    0.89438E-05   -0.80795E-04  6104   0.117E-01    0.933E-02
DAV:   8    -0.299985565916E+03    0.16574E-03   -0.19060E-04  5808   0.638E-02    0.293E-02
DAV:   9    -0.299985703178E+03   -0.13726E-03   -0.32863E-05  3592   0.286E-02    0.244E-02
DAV:  10    -0.299985589665E+03    0.11351E-03   -0.10904E-05  2824   0.173E-02    0.132E-02
DAV:  11    -0.299985623701E+03   -0.34036E-04   -0.60228E-06  2784   0.150E-02    0.138E-02
DAV:  12    -0.299985623972E+03   -0.27129E-06   -0.38976E-06  2728   0.110E-02
   7 F= -.29998562E+03 E0= -.29998562E+03  d E =-.600595E-02  mag=     0.0189
