 vasp.5.4.4.2.16052018-CX13-ORIG (build Jul 06 2020 08:41:35) complex           
  
 executed on   Pi1911m201i197avx2 date 2024.01.01  08:30:20
 running on   48 total cores
 each image running on   12 cores
 distrk:  each k-point on   12 cores,    1 groups
 distr:  one band on NCORES_PER_BAND=  12 cores,    1 groups


--------------------------------------------------------------------------------------------------------


 INCAR:
 POTCAR:    PAW_PBE Al 04Jan2001                  
 POTCAR:    PAW_PBE Co_pv 23Apr2009               
 POTCAR:    PAW_PBE S 06Sep2000                   

 ----------------------------------------------------------------------------- 
|                                                                             |
|           W    W    AA    RRRRR   N    N  II  N    N   GGGG   !!!           |
|           W    W   A  A   R    R  NN   N  II  NN   N  G    G  !!!           |
|           W    W  A    A  R    R  N N  N  II  N N  N  G       !!!           |
|           W WW W  AAAAAA  RRRRR   N  N N  II  N  N N  G  GGG   !            |
|           WW  WW  A    A  R   R   N   NN  II  N   NN  G    G                |
|           W    W  A    A  R    R  N    N  II  N    N   GGGG   !!!           |
|                                                                             |
|      For optimal performance we recommend to set                            |
|        NCORE= 4 - approx SQRT( number of cores)                             |
|      NCORE specifies how many cores store one orbital (NPAR=cpu/NCORE).     |
|      This setting can  greatly improve the performance of VASP for DFT.     |
|      The default,   NCORE=1            might be grossly inefficient         |
|      on modern multi-core architectures or massively parallel machines.     |
|      Do your own testing !!!!                                               |
|      Unfortunately you need to use the default for GW and RPA calculations. |
|      (for HF NCORE is supported but not extensively tested yet)             |
|                                                                             |
 ----------------------------------------------------------------------------- 

 POTCAR:    PAW_PBE Al 04Jan2001                  
   VRHFIN =Al: s2p1                                                             
   LEXCH  = PE                                                                  
   EATOM  =    53.5387 eV,    3.9350 Ry                                         
                                                                                
   TITEL  = PAW_PBE Al 04Jan2001                                                
   LULTRA =        F    use ultrasoft PP ?                                      
   IUNSCR =        1    unscreen: 0-lin 1-nonlin 2-no                           
   RPACOR =    1.500    partial core radius                                     
   POMASS =   26.981; ZVAL   =    3.000    mass and valenz                      
   RCORE  =    1.900    outmost cutoff radius                                   
   RWIGS  =    2.650; RWIGS  =    1.402    wigner-seitz radius (au A)           
   ENMAX  =  240.300; ENMIN  =  180.225 eV                                      
   ICORE  =        2    local potential                                         
   LCOR   =        T    correct aug charges                                     
   LPAW   =        T    paw PP                                                  
   EAUG   =  291.052                                                            
   DEXC   =    0.000                                                            
   RMAX   =    1.939    core radius for proj-oper                               
   RAUG   =    1.300    factor for augmentation sphere                          
   RDEP   =    1.966    radius for radial grids                                 
   RDEPT  =    1.856    core radius for aug-charge                              
                                                                                
   Atomic configuration                                                         
    6 entries                                                                   
     n  l   j            E        occ.                                          
     1  0  0.50     -1511.1048   2.0000                                         
     2  0  0.50      -108.1629   2.0000                                         
     2  1  1.50       -69.6402   6.0000                                         
     3  0  0.50        -7.7528   2.0000                                         
     3  1  1.50        -2.7121   1.0000                                         
     3  2  2.50        -2.7212   0.0000                                         
   Description                                                                  
     l       E           TYP  RCUT    TYP  RCUT                                 
     0     -7.7528455     23  1.900                                             
     0     -3.3096929     23  1.900                                             
     1     -2.7120682     23  1.900                                             
     1     13.6058260     23  1.900                                             
     2     -2.7211652      7  1.900                                             
  local pseudopotential read in
  partial core-charges read in
  partial kinetic energy density read in
  atomic valenz-charges read in
  non local Contribution for L=           0  read in
    real space projection operators read in
  non local Contribution for L=           0  read in
    real space projection operators read in
  non local Contribution for L=           1  read in
    real space projection operators read in
  non local Contribution for L=           1  read in
    real space projection operators read in
    PAW grid and wavefunctions read in
 
   number of l-projection  operators is LMAX  =           4
   number of lm-projection operators is LMMAX =           8
 
 POTCAR:    PAW_PBE Co_pv 23Apr2009               
   VRHFIN =Co: 3pd7s1                                                           
   LEXCH  = PE                                                                  
   EATOM  =  2948.1334 eV,  216.6817 Ry                                         
                                                                                
   TITEL  = PAW_PBE Co_pv 23Apr2009                                             
   LULTRA =        F    use ultrasoft PP ?                                      
   IUNSCR =        1    unscreen: 0-lin 1-nonlin 2-no                           
   RPACOR =    2.000    partial core radius                                     
   POMASS =   58.933; ZVAL   =   15.000    mass and valenz                      
   RCORE  =    2.300    outmost cutoff radius                                   
   RWIGS  =    2.460; RWIGS  =    1.302    wigner-seitz radius (au A)           
   ENMAX  =  271.042; ENMIN  =  203.281 eV                                      
   ICORE  =        3    local potential                                         
   LCOR   =        T    correct aug charges                                     
   LPAW   =        T    paw PP                                                  
   EAUG   =  543.066                                                            
   DEXC   =    0.000                                                            
   RMAX   =    2.360    core radius for proj-oper                               
   RAUG   =    1.300    factor for augmentation sphere                          
   RDEP   =    2.393    radius for radial grids                                 
   RDEPT  =    1.841    core radius for aug-charge                              
                                                                                
   Atomic configuration                                                         
    8 entries                                                                   
     n  l   j            E        occ.                                          
     1  0  0.50     -7587.6674   2.0000                                         
     2  0  0.50      -893.6084   2.0000                                         
     2  1  1.50      -764.5805   6.0000                                         
     3  0  0.50       -97.5973   2.0000                                         
     3  1  1.50       -60.9648   6.0000                                         
     3  2  2.50        -4.2382   8.0000                                         
     4  0  0.50        -4.3746   1.0000                                         
     4  3  2.50        -1.3606   0.0000                                         
   Description                                                                  
     l       E           TYP  RCUT    TYP  RCUT                                 
     1    -60.9647990     23  2.000                                             
     1     -5.4423304     23  2.000                                             
     2     -4.2382362     23  2.300                                             
     2     -5.5988188     23  2.300                                             
     0     -4.3745797     23  2.300                                             
     0      5.7660125     23  2.300                                             
     3     -1.3605826     23  2.300                                             
  local pseudopotential read in
  partial core-charges read in
  partial kinetic energy density read in
  atomic valenz-charges read in
  non local Contribution for L=           1  read in
    real space projection operators read in
  non local Contribution for L=           1  read in
    real space projection operators read in
  non local Contribution for L=           2  read in
    real space projection operators read in
  non local Contribution for L=           2  read in
    real space projection operators read in
  non local Contribution for L=           0  read in
    real space projection operators read in
  non local Contribution for L=           0  read in
    real space projection operators read in
    PAW grid and wavefunctions read in
 
   number of l-projection  operators is LMAX  =           6
   number of lm-projection operators is LMMAX =          18
 
 POTCAR:    PAW_PBE S 06Sep2000                   
   VRHFIN =S : s2p4                                                             
   LEXCH  = PE                                                                  
   EATOM  =   276.8230 eV,   20.3459 Ry                                         
                                                                                
   TITEL  = PAW_PBE S 06Sep2000                                                 
   LULTRA =        F    use ultrasoft PP ?                                      
   IUNSCR =        1    unscreen: 0-lin 1-nonlin 2-no                           
   RPACOR =    1.500    partial core radius                                     
   POMASS =   32.066; ZVAL   =    6.000    mass and valenz                      
   RCORE  =    1.900    outmost cutoff radius                                   
   RWIGS  =    2.200; RWIGS  =    1.164    wigner-seitz radius (au A)           
   ENMAX  =  258.689; ENMIN  =  194.016 eV                                      
   ICORE  =        2    local potential                                         
   LCOR   =        T    correct aug charges                                     
   LPAW   =        T    paw PP                                                  
   EAUG   =  335.092                                                            
   DEXC   =    0.000                                                            
   RMAX   =    1.942    core radius for proj-oper                               
   RAUG   =    1.300    factor for augmentation sphere                          
   RDEP   =    1.954    radius for radial grids                                 
   RDEPT  =    1.744    core radius for aug-charge                              
                                                                                
   Atomic configuration                                                         
    6 entries                                                                   
     n  l   j            E        occ.                                          
     1  0  0.50     -2405.8406   2.0000                                         
     2  0  0.50      -211.7007   2.0000                                         
     2  1  1.50      -156.4958   6.0000                                         
     3  0  0.50       -17.2562   2.0000                                         
     3  1  0.50        -7.0085   4.0000                                         
     3  2  1.50        -6.8029   0.0000                                         
   Description                                                                  
     l       E           TYP  RCUT    TYP  RCUT                                 
     0    -17.2561641     23  1.900                                             
     0    -15.8743224     23  1.900                                             
     1     -7.0085400     23  1.900                                             
     1     -2.7779785     23  1.900                                             
     2     -6.8029130     23  1.900                                             
  local pseudopotential read in
  partial core-charges read in
  partial kinetic energy density read in
  atomic valenz-charges read in
  non local Contribution for L=           0  read in
    real space projection operators read in
  non local Contribution for L=           0  read in
    real space projection operators read in
  non local Contribution for L=           1  read in
    real space projection operators read in
  non local Contribution for L=           1  read in
    real space projection operators read in
    PAW grid and wavefunctions read in
 
   number of l-projection  operators is LMAX  =           4
   number of lm-projection operators is LMMAX =           8
 
 Optimization of the real space projectors (new method)

 maximal supplied QI-value         = 19.84
 optimisation between [QCUT,QGAM] = [ 11.51, 23.22] = [ 37.09,150.92] Ry 
 Optimized for a Real-space Cutoff    1.18 Angstroem

   l    n(q)    QCUT    max X(q) W(low)/X(q) W(high)/X(q)  e(spline) 
   0      8    11.508   176.870    0.11E-03    0.16E-03    0.40E-07
   0      8    11.508   105.762    0.11E-03    0.16E-03    0.39E-07
   1      8    11.508    55.370    0.23E-03    0.10E-03    0.75E-07
   1      8    11.508    20.208    0.21E-03    0.91E-04    0.68E-07
 Optimization of the real space projectors (new method)

 maximal supplied QI-value         = 16.25
 optimisation between [QCUT,QGAM] = [ 11.54, 23.24] = [ 37.28,151.24] Ry 
 Optimized for a Real-space Cutoff    1.32 Angstroem

   l    n(q)    QCUT    max X(q) W(low)/X(q) W(high)/X(q)  e(spline) 
   1      9    11.539     4.946    0.12E-03    0.47E-03    0.20E-06
   1      9    11.539     5.991    0.19E-03    0.70E-03    0.29E-06
   2      8    11.539    46.947    0.22E-03    0.40E-03    0.23E-06
   2      8    11.539    42.928    0.24E-03    0.42E-03    0.23E-06
   0      9    11.539    68.324    0.11E-03    0.13E-03    0.74E-07
   0      9    11.539    36.926    0.10E-03    0.12E-03    0.70E-07
 Optimization of the real space projectors (new method)

 maximal supplied QI-value         = 19.84
 optimisation between [QCUT,QGAM] = [ 11.51, 23.22] = [ 37.09,150.92] Ry 
 Optimized for a Real-space Cutoff    1.21 Angstroem

   l    n(q)    QCUT    max X(q) W(low)/X(q) W(high)/X(q)  e(spline) 
   0      8    11.508   187.594    0.96E-04    0.18E-03    0.54E-07
   0      8    11.508   164.243    0.96E-04    0.18E-03    0.54E-07
   1      8    11.508    67.533    0.18E-03    0.65E-04    0.94E-07
   1      8    11.508    50.729    0.18E-03    0.63E-04    0.92E-07
  PAW_PBE Al 04Jan2001                  :
 energy of atom  1       EATOM=  -53.5387
 kinetic energy error for atom=    0.0002 (will be added to EATOM!!)
  PAW_PBE Co_pv 23Apr2009               :
 energy of atom  2       EATOM=-2948.1334
 kinetic energy error for atom=    0.0056 (will be added to EATOM!!)
  PAW_PBE S 06Sep2000                   :
 energy of atom  3       EATOM= -276.8230
 kinetic energy error for atom=    0.0016 (will be added to EATOM!!)
 
 
 POSCAR: Al Co  S                                
  positions in direct lattice
  velocities in cartesian coordinates
 exchange correlation table for  LEXCH =        8
   RHO(1)=    0.500       N(1)  =     2000
   RHO(2)=  100.500       N(2)  =     4000
 
 POSCAR: Al Co  S                                
  positions in direct lattice
  velocities in cartesian coordinates
 
 POSCAR: Al Co  S                                
  positions in direct lattice
  velocities in cartesian coordinates
 


--------------------------------------------------------------------------------------------------------


 ion  position               nearest neighbor table
   1  0.000  0.000  0.000-  27 2.31  39 2.31  45 2.31  53 2.31
   2  0.248  0.748  0.748-  32 2.29  34 2.29  38 2.29  36 2.32
   3  0.500  0.000  0.500-  25 2.31  33 2.31  41 2.31  54 2.31
   4  0.500  0.500  0.000-  29 2.31  35 2.31  47 2.31  55 2.31
   5  0.752  0.252  0.748-  42 2.29  44 2.29  46 2.29  40 2.32
   6  0.752  0.748  0.252-  48 2.29  49 2.29  51 2.29  50 2.32
   7  0.223  0.277  0.277-  24 2.19  28 2.19  30 2.19  26 2.74
   8  0.127  0.126  0.627-  43 2.24  41 2.26  45 2.26  44 2.29  24 2.29  34 2.31
   9  0.873  0.874  0.627-  31 2.24  27 2.26  25 2.26  34 2.29  51 2.29  44 2.31
  10  0.375  0.125  0.875-  41 2.27  45 2.27  47 2.27  26 2.28  36 2.28  40 2.28
  11  0.625  0.875  0.875-  25 2.27  27 2.27  29 2.27  36 2.28  40 2.28  50 2.28
  12  0.127  0.373  0.874-  43 2.24  45 2.26  47 2.26  32 2.29  42 2.29  28 2.31
  13  0.873  0.627  0.874-  31 2.24  29 2.26  27 2.26  42 2.29  32 2.29  49 2.31
  14  0.374  0.373  0.627-  43 2.24  41 2.26  47 2.26  38 2.29  30 2.29  46 2.31
  15  0.626  0.627  0.627-  31 2.24  29 2.26  25 2.26  46 2.29  48 2.29  38 2.31
  16  0.375  0.875  0.125-  33 2.27  35 2.27  39 2.27  36 2.28  26 2.28  50 2.28
  17  0.374  0.627  0.373-  37 2.24  35 2.26  33 2.26  30 2.29  38 2.29  48 2.31
  18  0.127  0.627  0.126-  37 2.24  35 2.26  39 2.26  28 2.29  49 2.29  32 2.31
  19  0.127  0.874  0.373-  37 2.24  33 2.26  39 2.26  34 2.29  51 2.29  24 2.31
  20  0.873  0.373  0.126-  52 2.24  53 2.26  55 2.26  49 2.29  28 2.29  42 2.31
  21  0.873  0.126  0.373-  52 2.24  53 2.26  54 2.26  44 2.29  24 2.29  51 2.31
  22  0.625  0.125  0.125-  53 2.27  54 2.27  55 2.27  26 2.28  40 2.28  50 2.28
  23  0.626  0.373  0.373-  52 2.24  54 2.26  55 2.26  48 2.29  46 2.29  30 2.31
  24  0.110  0.114  0.390-   7 2.19   8 2.29  21 2.29  19 2.31
  25  0.638  0.862  0.640-   9 2.26  15 2.26  11 2.27   3 2.31
  26  0.388  0.112  0.112-  10 2.28  16 2.28  22 2.28   7 2.74
  27  0.860  0.862  0.862-   9 2.26  13 2.26  11 2.27   1 2.31
  28  0.110  0.390  0.114-   7 2.19  18 2.29  20 2.29  12 2.31
  29  0.638  0.640  0.862-  13 2.26  15 2.26  11 2.27   4 2.31
  30  0.386  0.390  0.390-   7 2.19  14 2.29  17 2.29  23 2.31
  31  0.858  0.642  0.642-   9 2.24  13 2.24  15 2.24
  32  0.110  0.610  0.886-  12 2.29  13 2.29   2 2.29  18 2.31
  33  0.362  0.862  0.360-  19 2.26  17 2.26  16 2.27   3 2.31
  34  0.110  0.886  0.610-   9 2.29  19 2.29   2 2.29   8 2.31
  35  0.362  0.640  0.138-  17 2.26  18 2.26  16 2.27   4 2.31
  36  0.388  0.888  0.888-  10 2.28  11 2.28  16 2.28   2 2.32
  37  0.142  0.642  0.358-  19 2.24  18 2.24  17 2.24
  38  0.386  0.610  0.610-  14 2.29  17 2.29   2 2.29  15 2.31
  39  0.140  0.862  0.138-  19 2.26  18 2.26  16 2.27   1 2.31
  40  0.612  0.112  0.888-  10 2.28  11 2.28  22 2.28   5 2.32
  41  0.362  0.138  0.640-   8 2.26  14 2.26  10 2.27   3 2.31
  42  0.890  0.390  0.886-  13 2.29  12 2.29   5 2.29  20 2.31
  43  0.142  0.358  0.642-  12 2.24   8 2.24  14 2.24
  44  0.890  0.114  0.610-   8 2.29  21 2.29   5 2.29   9 2.31
  45  0.140  0.138  0.862-  12 2.26   8 2.26  10 2.27   1 2.31
  46  0.614  0.390  0.610-  15 2.29  23 2.29   5 2.29  14 2.31
  47  0.362  0.360  0.862-  12 2.26  14 2.26  10 2.27   4 2.31
  48  0.614  0.610  0.390-  23 2.29  15 2.29   6 2.29  17 2.31
  49  0.890  0.610  0.114-  18 2.29  20 2.29   6 2.29  13 2.31
  50  0.612  0.888  0.112-  11 2.28  16 2.28  22 2.28   6 2.32
  51  0.890  0.886  0.390-   9 2.29  19 2.29   6 2.29  21 2.31
  52  0.858  0.358  0.358-  23 2.24  21 2.24  20 2.24
  53  0.860  0.138  0.138-  20 2.26  21 2.26  22 2.27   1 2.31
  54  0.638  0.138  0.360-  23 2.26  21 2.26  22 2.27   3 2.31
  55  0.638  0.360  0.138-  23 2.26  20 2.26  22 2.27   4 2.31
 
  LATTYP: Found a simple cubic cell.
 ALAT       =     9.6027250954
  
  Lattice vectors:
  
 A1 = (   9.6027250954,   0.0000000000,   0.0000000000)
 A2 = (   0.0000000000,   9.6027250954,   0.0000000000)
 A3 = (   0.0000000000,   0.0000000000,   9.6027250954)


Analysis of symmetry for initial positions (statically):
=====================================================================
 Subroutine PRICEL returns:
 Original cell was already a primitive cell.
 

 Routine SETGRP: Setting up the symmetry group for a 
 simple cubic supercell.


 Subroutine GETGRP returns: Found  6 space group operations
 (whereof  2 operations were pure point group operations)
 out of a pool of 48 trial point group operations.


The static configuration has the point symmetry C_1h.
 The point group associated with its full space group is C_3v.


Analysis of symmetry for dynamics (positions and initial velocities):
=====================================================================
 Subroutine PRICEL returns:
 Original cell was already a primitive cell.
 

 Routine SETGRP: Setting up the symmetry group for a 
 simple cubic supercell.


 Subroutine GETGRP returns: Found  6 space group operations
 (whereof  2 operations were pure point group operations)
 out of a pool of 48 trial point group operations.


The dynamic configuration has the point symmetry C_1h.
 The point group associated with its full space group is C_3v.


Analysis of structural, dynamic, and magnetic symmetry:
=====================================================================
 Subroutine PRICEL returns:
 Original cell was already a primitive cell.
 

 Routine SETGRP: Setting up the symmetry group for a 
 simple cubic supercell.


 Subroutine GETGRP returns: Found  6 space group operations
 (whereof  2 operations were pure point group operations)
 out of a pool of 48 trial point group operations.


The magnetic configuration has the point symmetry C_1h.
 The point group associated with its full space group is C_3v.


 Subroutine INISYM returns: Found  6 space group operations
 (whereof  2 operations are pure point group operations),
 and found     1 'primitive' translations

 
 
 KPOINTS: Monkhorst Pack                          

Automatic generation of k-mesh.
Space group operators:
 irot       det(A)        alpha          n_x          n_y          n_z        tau_x        tau_y        tau_z
    1     1.000000     0.000000     1.000000     0.000000     0.000000     0.000000     0.000000     0.000000
    2    -1.000000   180.000000     0.000000    -0.707107     0.707107     0.000000     0.000000     0.000000
    3     1.000000   120.000000    -0.577350     0.577350     0.577350     0.500000     0.500000     0.000000
    4    -1.000000   180.000000     0.707107     0.000000     0.707107     0.500000     0.000000     0.500000
    5    -1.000000   180.000000     0.707107     0.707107     0.000000     0.500000     0.500000     0.000000
    6     1.000000   120.000000     0.577350    -0.577350    -0.577350     0.500000     0.000000     0.500000
 
 Subroutine IBZKPT returns following result:
 ===========================================
 
 Found      4 irreducible k-points:
 
 Following reciprocal coordinates:
            Coordinates               Weight
  0.000000  0.000000  0.000000      1.000000
  0.500000  0.000000  0.000000      3.000000
  0.500000  0.500000  0.000000      3.000000
  0.500000  0.500000  0.500000      1.000000
 
 Following cartesian coordinates:
            Coordinates               Weight
  0.000000  0.000000  0.000000      1.000000
  0.052069  0.000000  0.000000      3.000000
  0.052069  0.052069  0.000000      3.000000
  0.052069  0.052069  0.052069      1.000000
 
 TETIRR: Found      4 inequivalent tetrahedra from       48


--------------------------------------------------------------------------------------------------------




 Dimension of arrays:
   k-points           NKPTS =      4   k-points in BZ     NKDIM =      4   number of bands    NBANDS=    323
   number of dos      NEDOS =    301   number of ions     NIONS =     55
   non local maximal  LDIM  =      6   non local SUM 2l+1 LMDIM =     18
   total plane-waves  NPLWV = 373248
   max r-space proj   IRMAX =   4139   max aug-charges    IRDMAX=  16603
   dimension x,y,z NGX =    72 NGY =   72 NGZ =   72
   dimension x,y,z NGXF=   144 NGYF=  144 NGZF=  144
   support grid    NGXF=   144 NGYF=  144 NGZF=  144
   ions per type =               7  16  32
   NGX,Y,Z   is equivalent  to a cutoff of  12.46, 12.46, 12.46 a.u.
   NGXF,Y,Z  is equivalent  to a cutoff of  24.93, 24.93, 24.93 a.u.

 SYSTEM =  AlCo2S4                                 
 POSCAR =  Al Co  S                                

 Startparameter for this run:
   NWRITE =      2    write-flag & timer
   PREC   = accura    normal or accurate (medium, high low for compatibility)
   ISTART =      0    job   : 0-new  1-cont  2-samecut
   ICHARG =      1    charge: 1-file 2-atom 10-const
   ISPIN  =      2    spin polarized calculation?
   LNONCOLLINEAR =      F non collinear calculations
   LSORBIT =      F    spin-orbit coupling
   INIWAV =      1    electr: 0-lowe 1-rand  2-diag
   LASPH  =      F    aspherical Exc in radial PAW
   METAGGA=      F    non-selfconsistent MetaGGA calc.

 Electronic Relaxation 1
   ENCUT  =  520.0 eV  38.22 Ry    6.18 a.u.  17.85 17.85 17.85*2*pi/ulx,y,z
   ENINI  =  520.0     initial cutoff
   ENAUG  =  543.1 eV  augmentation charge cutoff
   NELM   =    100;   NELMIN=  2; NELMDL= -5     # of ELM steps 
   EDIFF  = 0.1E-04   stopping-criterion for ELM
   LREAL  =      T    real-space projection
   NLSPLINE    = F    spline interpolate recip. space projectors
   LCOMPAT=      F    compatible to vasp.4.4
   GGA_COMPAT  = T    GGA compatible to vasp.4.4-vasp.4.6
   LMAXPAW     = -100 max onsite density
   LMAXMIX     =    4 max onsite mixed and CHGCAR
   VOSKOWN=      0    Vosko Wilk Nusair interpolation
   ROPT   =   -0.00025  -0.00025  -0.00025
 Ionic relaxation
   EDIFFG = -.5E-01   stopping-criterion for IOM
   NSW    =    199    number of steps for IOM
   NBLOCK =      1;   KBLOCK =    199    inner block; outer block 
   IBRION =      1    ionic relax: 0-MD 1-quasi-New 2-CG
   NFREE  =      0    steps in history (QN), initial steepest desc. (CG)
   ISIF   =      2    stress and relaxation
   IWAVPR =     11    prediction:  0-non 1-charg 2-wave 3-comb
   ISYM   =      2    0-nonsym 1-usesym 2-fastsym
   LCORR  =      T    Harris-Foulkes like correction to forces

   POTIM  = 0.5000    time-step for ionic-motion
   TEIN   =    0.0    initial temperature
   TEBEG  =    0.0;   TEEND  =   0.0 temperature during run
   SMASS  =  -3.00    Nose mass-parameter (am)
   estimated Nose-frequenzy (Omega)   =  0.10E-29 period in steps =****** mass=  -0.211E-26a.u.
   SCALEE = 1.0000    scale energy and forces
   NPACO  =    256;   APACO  = 16.0  distance and # of slots for P.C.
   PSTRESS=    0.0 pullay stress

  Mass of Ions in am
   POMASS =  26.98 58.93 32.07
  Ionic Valenz
   ZVAL   =   3.00 15.00  6.00
  Atomic Wigner-Seitz radii
   RWIGS  =  -1.00 -1.00 -1.00
  virtual crystal weights 
   VCA    =   1.00  1.00  1.00
   NELECT =     453.0000    total number of electrons
   NUPDOWN=      -1.0000    fix difference up-down

 DOS related values:
   EMIN   =  10.00;   EMAX   =-10.00  energy-range for DOS
   EFERMI =   0.00
   ISMEAR =    -5;   SIGMA  =   0.05  broadening in eV -4-tet -1-fermi 0-gaus

 Electronic relaxation 2 (details)
   IALGO  =     38    algorithm
   LDIAG  =      T    sub-space diagonalisation (order eigenvalues)
   LSUBROT=      F    optimize rotation matrix (better conditioning)
   TURBO    =      0    0=normal 1=particle mesh
   IRESTART =      0    0=no restart 2=restart with 2 vectors
   NREBOOT  =      0    no. of reboots
   NMIN     =      0    reboot dimension
   EREF     =   0.00    reference energy to select bands
   IMIX   =      4    mixing-type and parameters
     AMIX     =   0.40;   BMIX     =  1.00
     AMIX_MAG =   1.60;   BMIX_MAG =  1.00
     AMIN     =   0.10
     WC   =   100.;   INIMIX=   1;  MIXPRE=   1;  MAXMIX= -45

 Intra band minimization:
   WEIMIN = 0.0010     energy-eigenvalue tresh-hold
   EBREAK =  0.77E-08  absolut break condition
   DEPER  =   0.30     relativ break condition  

   TIME   =   0.40     timestep for ELM

  volume/ion in A,a.u.               =      16.10       108.65
  Fermi-wavevector in a.u.,A,eV,Ry     =   1.309322  2.474259 23.324789  1.714324
  Thomas-Fermi vector in A             =   2.439928
 
 Write flags
   LWAVE        =      F    write WAVECAR
   LDOWNSAMPLE  =      F    k-point downsampling of WAVECAR
   LCHARG       =      F    write CHGCAR
   LVTOT        =      F    write LOCPOT, total local potential
   LVHAR        =      F    write LOCPOT, Hartree potential only
   LELF         =      F    write electronic localiz. function (ELF)
   LORBIT       =     11    0 simple, 1 ext, 2 COOP (PROOUT), +10 PAW based schemes


 Dipole corrections
   LMONO  =      F    monopole corrections only (constant potential shift)
   LDIPOL =      F    correct potential (dipole corrections)
   IDIPOL =      0    1-x, 2-y, 3-z, 4-all directions 
   EPSILON=  1.0000000 bulk dielectric constant

 Exchange correlation treatment:
   GGA     =    --    GGA type
   LEXCH   =     8    internal setting for exchange type
   VOSKOWN=      0    Vosko Wilk Nusair interpolation
   LHFCALC =     F    Hartree Fock is set to
   LHFONE  =     F    Hartree Fock one center treatment
   AEXX    =    0.0000 exact exchange contribution

 Linear response parameters
   LEPSILON=     F    determine dielectric tensor
   LRPA    =     F    only Hartree local field effects (RPA)
   LNABLA  =     F    use nabla operator in PAW spheres
   LVEL    =     F    velocity operator in full k-point grid
   LINTERFAST=   F  fast interpolation
   KINTER  =     0    interpolate to denser k-point grid
   CSHIFT  =0.1000    complex shift for real part using Kramers Kronig
   OMEGAMAX=  -1.0    maximum frequency
   DEG_THRESHOLD= 0.2000000E-02 threshold for treating states as degnerate
   RTIME   =   -0.100 relaxation time in fs
  (WPLASMAI=    0.000 imaginary part of plasma frequency in eV, 0.658/RTIME)
   DFIELD  = 0.0000000 0.0000000 0.0000000 field for delta impulse in time
 
 Orbital magnetization related:
   ORBITALMAG=     F  switch on orbital magnetization
   LCHIMAG   =     F  perturbation theory with respect to B field
   DQ        =  0.001000  dq finite difference perturbation B field
   LLRAUG    =     F  two centre corrections for induced B field



--------------------------------------------------------------------------------------------------------


 quasi-Newton-method for relaxation of ions
 charge density and potential will be updated during run
 spin polarized calculation
 Variant of blocked Davidson
 Davidson routine will perform the subspace rotation
 perform sub-space diagonalisation
    after iterative eigenvector-optimisation
 modified Broyden-mixing scheme, WC =      100.0
 initial mixing is a Kerker type mixing with AMIX =  0.4000 and BMIX =      1.0000
 Hartree-type preconditioning will be used
 using additional bands           96
 real space projection scheme for non local part
 use partial core corrections
 calculate Harris-corrections to forces 
   (improved forces if not selfconsistent)
 use gradient corrections 
 use of overlap-Matrix (Vanderbilt PP)
 Fermi weights with tetrahedron method with Bloechl corrections


--------------------------------------------------------------------------------------------------------


  energy-cutoff  :      520.00
  volume of cell :      885.49
      direct lattice vectors                 reciprocal lattice vectors
     9.602725095  0.000000000  0.000000000     0.104137106  0.000000000  0.000000000
     0.000000000  9.602725095  0.000000000     0.000000000  0.104137106  0.000000000
     0.000000000  0.000000000  9.602725095     0.000000000  0.000000000  0.104137106

  length of vectors
     9.602725095  9.602725095  9.602725095     0.104137106  0.104137106  0.104137106


 
 k-points in units of 2pi/SCALE and weight: Monkhorst Pack                          
   0.00000000  0.00000000  0.00000000       0.125
   0.05206855  0.00000000  0.00000000       0.375
   0.05206855  0.05206855  0.00000000       0.375
   0.05206855  0.05206855  0.05206855       0.125
 
 k-points in reciprocal lattice and weights: Monkhorst Pack                          
   0.00000000  0.00000000  0.00000000       0.125
   0.50000000  0.00000000  0.00000000       0.375
   0.50000000  0.50000000  0.00000000       0.375
   0.50000000  0.50000000  0.50000000       0.125
 
 position of ions in fractional coordinates (direct lattice) 
   0.00000000  0.00000000  0.00000000
   0.24816687  0.74816687  0.74816687
   0.50000000  0.00000000  0.50000000
   0.50000000  0.50000000  0.00000000
   0.75183313  0.25183313  0.74816687
   0.75183313  0.74816687  0.25183313
   0.22316687  0.27683313  0.27683313
   0.12728522  0.12621581  0.62728522
   0.87271478  0.87378419  0.62728522
   0.37526679  0.12473321  0.87526679
   0.62473321  0.87526679  0.87526679
   0.12728522  0.37271478  0.87378419
   0.87271478  0.62728522  0.87378419
   0.37378419  0.37271478  0.62728522
   0.62621581  0.62728522  0.62728522
   0.37526679  0.87526679  0.12473321
   0.37378419  0.62728522  0.37271478
   0.12728522  0.62728522  0.12621581
   0.12728522  0.87378419  0.37271478
   0.87271478  0.37271478  0.12621581
   0.87271478  0.12621581  0.37271478
   0.62473321  0.12473321  0.12473321
   0.62621581  0.37271478  0.37271478
   0.11040639  0.11363286  0.38959361
   0.63809977  0.86190023  0.63971123
   0.38779841  0.11220159  0.11220159
   0.86028877  0.86190023  0.86190023
   0.11040639  0.38959361  0.11363286
   0.63809977  0.63971123  0.86190023
   0.38636714  0.38959361  0.38959361
   0.85812981  0.64187019  0.64187019
   0.11040639  0.61040639  0.88636714
   0.36190023  0.86190023  0.36028877
   0.11040639  0.88636714  0.61040639
   0.36190023  0.63971123  0.13809977
   0.38779841  0.88779841  0.88779841
   0.14187019  0.64187019  0.35812981
   0.38636714  0.61040639  0.61040639
   0.13971123  0.86190023  0.13809977
   0.61220159  0.11220159  0.88779841
   0.36190023  0.13809977  0.63971123
   0.88959361  0.38959361  0.88636714
   0.14187019  0.35812981  0.64187019
   0.88959361  0.11363286  0.61040639
   0.13971123  0.13809977  0.86190023
   0.61363286  0.38959361  0.61040639
   0.36190023  0.36028877  0.86190023
   0.61363286  0.61040639  0.38959361
   0.88959361  0.61040639  0.11363286
   0.61220159  0.88779841  0.11220159
   0.88959361  0.88636714  0.38959361
   0.85812981  0.35812981  0.35812981
   0.86028877  0.13809977  0.13809977
   0.63809977  0.13809977  0.36028877
   0.63809977  0.36028877  0.13809977
 
 position of ions in cartesian coordinates  (Angst):
   0.00000000  0.00000000  0.00000000
   2.38307820  7.18444075  7.18444075
   4.80136255  0.00000000  4.80136255
   4.80136255  4.80136255  0.00000000
   7.21964689  2.41828434  7.18444075
   7.21964689  7.18444075  2.41828434
   2.14301008  2.65835247  2.65835247
   1.22228500  1.21201577  6.02364755
   8.38044009  8.39070932  6.02364755
   3.60358382  1.19777872  8.40494637
   5.99914127  8.40494637  8.40494637
   1.22228500  3.57907754  8.39070932
   8.38044009  6.02364755  8.39070932
   3.58934678  3.57907754  6.02364755
   6.01337832  6.02364755  6.02364755
   3.60358382  8.40494637  1.19777872
   3.58934678  6.02364755  3.57907754
   1.22228500  6.02364755  1.21201577
   1.22228500  8.39070932  3.57907754
   8.38044009  3.57907754  1.21201577
   8.38044009  1.21201577  3.57907754
   5.99914127  1.19777872  1.19777872
   6.01337832  3.57907754  3.57907754
   1.06020222  1.09118511  3.74116032
   6.12749671  8.27659094  6.14297108
   3.72392154  1.07744101  1.07744101
   8.26111656  8.27659094  8.27659094
   1.06020222  3.74116032  1.09118511
   6.12749671  6.14297108  8.27659094
   3.71017744  3.74116032  3.74116032
   8.24038465  6.16370300  6.16370300
   1.06020222  5.86156477  8.51153998
   3.47522839  8.27659094  3.45975401
   1.06020222  8.51153998  5.86156477
   3.47522839  6.14297108  1.32613416
   3.72392154  8.52528409  8.52528409
   1.36234045  6.16370300  3.43902210
   3.71017744  5.86156477  5.86156477
   1.34160853  8.27659094  1.32613416
   5.87880356  1.07744101  8.52528409
   3.47522839  1.32613416  6.14297108
   8.54252287  3.74116032  8.51153998
   1.36234045  3.43902210  6.16370300
   8.54252287  1.09118511  5.86156477
   1.34160853  1.32613416  8.27659094
   5.89254766  3.74116032  5.86156477
   3.47522839  3.45975401  8.27659094
   5.89254766  5.86156477  3.74116032
   8.54252287  5.86156477  1.09118511
   5.87880356  8.52528409  1.07744101
   8.54252287  8.51153998  3.74116032
   8.24038465  3.43902210  3.43902210
   8.26111656  1.32613416  1.32613416
   6.12749671  1.32613416  3.45975401
   6.12749671  3.45975401  1.32613416
 


--------------------------------------------------------------------------------------------------------


 k-point  1 :   0.0000 0.0000 0.0000  plane waves:   23847
 k-point  2 :   0.5000 0.0000 0.0000  plane waves:   23844
 k-point  3 :   0.5000 0.5000 0.0000  plane waves:   23900
 k-point  4 :   0.5000 0.5000 0.5000  plane waves:   23984

 maximum and minimum number of plane-waves per node :      2020     1956

 maximum number of plane-waves:     23984
 maximum index in each direction: 
   IXMAX=   17   IYMAX=   17   IZMAX=   17
   IXMIN=  -18   IYMIN=  -18   IZMIN=  -18


 real space projection operators:
  total allocation   :      16158.62 KBytes
  max/ min on nodes  :       1379.41       1313.97


 parallel 3D FFT for wavefunctions:
    minimum data exchange during FFTs selected (reduces bandwidth)
 parallel 3D FFT for charge:
    minimum data exchange during FFTs selected (reduces bandwidth)


 total amount of memory used by VASP MPI-rank0   154730. kBytes
=======================================================================

   base      :      30000. kBytes
   nonlr-proj:       5461. kBytes
   fftplans  :       9381. kBytes
   grid      :      24648. kBytes
   one-center:        155. kBytes
   wavefun   :      85085. kBytes
 
     INWAV:  cpu time    0.0000: real time    0.0000
 Broyden mixing: mesh for mixing (old mesh)
   NGX = 35   NGY = 35   NGZ = 35
  (NGX  =144   NGY  =144   NGZ  =144)
  gives a total of  42875 points

 initial charge density was supplied:
 charge density of overlapping atoms calculated
 number of electron     453.0000000 magnetization     103.4000000
 keeping initial charge density in first step


--------------------------------------------------------------------------------------------------------


 Maximum index for non-local projection operator          323
 Maximum index for augmentation-charges         1389 (set IRDMAX)


--------------------------------------------------------------------------------------------------------


 First call to EWALD:  gamma=   0.185
 Maximum number of real-space cells 3x 3x 3
 Maximum number of reciprocal cells 3x 3x 3

    FEWALD:  cpu time    0.0025: real time    0.0025


--------------------------------------- Iteration      1(   1)  ---------------------------------------


    POTLOK:  cpu time    0.3650: real time    0.3703
    SETDIJ:  cpu time    0.0319: real time    0.0321
     EDDAV:  cpu time   19.9112: real time   20.0372
 BZINTS: Fermi energy: 25.689833;453.000000 electrons
         Band energy:1752.578871;  BLOECHL correction: -0.045636
       DOS:  cpu time    0.0036: real time    0.0036
    --------------------------------------------
      LOOP:  cpu time   20.3116: real time   20.4433

 eigenvalue-minimisations  :  5616
 total energy-change (2. order) : 0.5526594E+04  (-0.2107561E+05)
 number of electron     453.0000000 magnetization     103.4000000
 augmentation part      453.0000000 magnetization     103.4000000

 Free energy of the ion-electron system (eV)
  ---------------------------------------------------
  alpha Z        PSCENC =      1269.90711959
  Ewald energy   TEWEN  =    -29629.69088226
  -Hartree energ DENC   =    -23142.44467353
  -exchange      EXHF   =         0.00000000
  -V(xc)+E(xc)   XCENC  =      1710.09217730
  PAW double counting   =     44894.81802819   -47731.76596422
  entropy T*S    EENTRO =         0.00000000
  eigenvalues    EBANDS =      1752.57887124
  atomic energy  EATOM  =     56403.09886247
  Solvation  Ediel_sol  =         0.00000000
  ---------------------------------------------------
  free energy    TOTEN  =      5526.59353879 eV

  energy without entropy =     5526.59353879  energy(sigma->0) =     5526.59353879


--------------------------------------------------------------------------------------------------------




--------------------------------------- Iteration      1(   2)  ---------------------------------------


     EDDAV:  cpu time   18.6802: real time   18.7982
 BZINTS: Fermi energy: 11.464792;453.000000 electrons
         Band energy:***********;  BLOECHL correction: -0.020999
       DOS:  cpu time    0.0034: real time    0.0034
    --------------------------------------------
      LOOP:  cpu time   18.6835: real time   18.8015

 eigenvalue-minimisations  :  5168
 total energy-change (2. order) :-0.4865230E+04  (-0.4521341E+04)
 number of electron     453.0000000 magnetization     103.4000000
 augmentation part      453.0000000 magnetization     103.4000000

 Free energy of the ion-electron system (eV)
  ---------------------------------------------------
  alpha Z        PSCENC =      1269.90711959
  Ewald energy   TEWEN  =    -29629.69088226
  -Hartree energ DENC   =    -23142.44467353
  -exchange      EXHF   =         0.00000000
  -V(xc)+E(xc)   XCENC  =      1710.09217730
  PAW double counting   =     44894.81802819   -47731.76596422
  entropy T*S    EENTRO =         0.00000000
  eigenvalues    EBANDS =     -3112.65128814
  atomic energy  EATOM  =     56403.09886247
  Solvation  Ediel_sol  =         0.00000000
  ---------------------------------------------------
  free energy    TOTEN  =       661.36337941 eV

  energy without entropy =      661.36337941  energy(sigma->0) =      661.36337941


--------------------------------------------------------------------------------------------------------




--------------------------------------- Iteration      1(   3)  ---------------------------------------


     EDDAV:  cpu time   20.2279: real time   20.3524
 BZINTS: Fermi energy:  9.219788;453.000000 electrons
         Band energy:***********;  BLOECHL correction: -0.083055
       DOS:  cpu time    0.0032: real time    0.0032
    --------------------------------------------
      LOOP:  cpu time   20.2311: real time   20.3556

 eigenvalue-minimisations  :  5704
 total energy-change (2. order) :-0.8965328E+03  (-0.8034458E+03)
 number of electron     453.0000000 magnetization     103.4000000
 augmentation part      453.0000000 magnetization     103.4000000

 Free energy of the ion-electron system (eV)
  ---------------------------------------------------
  alpha Z        PSCENC =      1269.90711959
  Ewald energy   TEWEN  =    -29629.69088226
  -Hartree energ DENC   =    -23142.44467353
  -exchange      EXHF   =         0.00000000
  -V(xc)+E(xc)   XCENC  =      1710.09217730
  PAW double counting   =     44894.81802819   -47731.76596422
  entropy T*S    EENTRO =         0.00000000
  eigenvalues    EBANDS =     -4009.18413206
  atomic energy  EATOM  =     56403.09886247
  Solvation  Ediel_sol  =         0.00000000
  ---------------------------------------------------
  free energy    TOTEN  =      -235.16946451 eV

  energy without entropy =     -235.16946451  energy(sigma->0) =     -235.16946451


--------------------------------------------------------------------------------------------------------




--------------------------------------- Iteration      1(   4)  ---------------------------------------


     EDDAV:  cpu time   21.3271: real time   21.4588
 BZINTS: Fermi energy:  9.035336;453.000000 electrons
         Band energy:***********;  BLOECHL correction: -0.207743
       DOS:  cpu time    0.0032: real time    0.0033
    --------------------------------------------
      LOOP:  cpu time   21.3304: real time   21.4621

 eigenvalue-minimisations  :  6072
 total energy-change (2. order) :-0.8101510E+02  (-0.7919222E+02)
 number of electron     453.0000000 magnetization     103.4000000
 augmentation part      453.0000000 magnetization     103.4000000

 Free energy of the ion-electron system (eV)
  ---------------------------------------------------
  alpha Z        PSCENC =      1269.90711959
  Ewald energy   TEWEN  =    -29629.69088226
  -Hartree energ DENC   =    -23142.44467353
  -exchange      EXHF   =         0.00000000
  -V(xc)+E(xc)   XCENC  =      1710.09217730
  PAW double counting   =     44894.81802819   -47731.76596422
  entropy T*S    EENTRO =         0.00000000
  eigenvalues    EBANDS =     -4090.19922732
  atomic energy  EATOM  =     56403.09886247
  Solvation  Ediel_sol  =         0.00000000
  ---------------------------------------------------
  free energy    TOTEN  =      -316.18455977 eV

  energy without entropy =     -316.18455977  energy(sigma->0) =     -316.18455977


--------------------------------------------------------------------------------------------------------




--------------------------------------- Iteration      1(   5)  ---------------------------------------


     EDDAV:  cpu time   21.8732: real time   22.0131
 BZINTS: Fermi energy:  9.025581;453.000000 electrons
         Band energy:***********;  BLOECHL correction: -0.210308
       DOS:  cpu time    0.0031: real time    0.0032
    CHARGE:  cpu time    0.6715: real time    0.6748
    MIXING:  cpu time    0.0058: real time    0.0058
    --------------------------------------------
      LOOP:  cpu time   22.5536: real time   22.6969

 eigenvalue-minimisations  :  6264
 total energy-change (2. order) :-0.1922786E+01  (-0.1909168E+01)
 number of electron     452.9999928 magnetization      82.3008192
 augmentation part      111.0815897 magnetization      64.7451234

 Broyden mixing:
  rms(total) = 0.10153E+02    rms(broyden)= 0.10152E+02
  rms(prec ) = 0.11780E+02
  weight for this iteration     100.00

 Free energy of the ion-electron system (eV)
  ---------------------------------------------------
  alpha Z        PSCENC =      1269.90711959
  Ewald energy   TEWEN  =    -29629.69088226
  -Hartree energ DENC   =    -23142.44467353
  -exchange      EXHF   =         0.00000000
  -V(xc)+E(xc)   XCENC  =      1710.09217730
  PAW double counting   =     44894.81802819   -47731.76596422
  entropy T*S    EENTRO =         0.00000000
  eigenvalues    EBANDS =     -4092.12201288
  atomic energy  EATOM  =     56403.09886247
  Solvation  Ediel_sol  =         0.00000000
  ---------------------------------------------------
  free energy    TOTEN  =      -318.10734533 eV

  energy without entropy =     -318.10734533  energy(sigma->0) =     -318.10734533


--------------------------------------------------------------------------------------------------------




--------------------------------------- Iteration      1(   6)  ---------------------------------------


    POTLOK:  cpu time    0.3117: real time    0.3154
    SETDIJ:  cpu time    0.0267: real time    0.0268
     EDDAV:  cpu time   20.6797: real time   20.8010
 BZINTS: Fermi energy:  5.232153;453.000000 electrons
         Band energy:***********;  BLOECHL correction: -0.122994
       DOS:  cpu time    0.0031: real time    0.0031
    CHARGE:  cpu time    0.6774: real time    0.6804
    MIXING:  cpu time    0.0054: real time    0.0054
    --------------------------------------------
      LOOP:  cpu time   21.7040: real time   21.8322

 eigenvalue-minimisations  :  5864
 total energy-change (2. order) :-0.1349039E+03  (-0.5569910E+02)
 number of electron     452.9999896 magnetization      71.7976652
 augmentation part      168.6440455 magnetization      63.1481194

 Broyden mixing:
  rms(total) = 0.15861E+02    rms(broyden)= 0.15860E+02
  rms(prec ) = 0.19014E+02
  weight for this iteration     100.00

 eigenvalues of (default mixing * dielectric matrix)
  average eigenvalue GAMMA=   0.1388
  0.1388

 Free energy of the ion-electron system (eV)
  ---------------------------------------------------
  alpha Z        PSCENC =      1269.90711959
  Ewald energy   TEWEN  =    -29629.69088226
  -Hartree energ DENC   =    -21538.22665662
  -exchange      EXHF   =         0.00000000
  -V(xc)+E(xc)   XCENC  =      1650.84705537
  PAW double counting   =     49694.86514049   -52321.19630741
  entropy T*S    EENTRO =         0.00000000
  eigenvalues    EBANDS =     -5982.61553184
  atomic energy  EATOM  =     56403.09886247
  Solvation  Ediel_sol  =         0.00000000
  ---------------------------------------------------
  free energy    TOTEN  =      -453.01120020 eV

  energy without entropy =     -453.01120020  energy(sigma->0) =     -453.01120020


--------------------------------------------------------------------------------------------------------




--------------------------------------- Iteration      1(   7)  ---------------------------------------


    POTLOK:  cpu time    0.2897: real time    0.2914
    SETDIJ:  cpu time    0.0272: real time    0.0273
     EDDAV:  cpu time   21.1872: real time   21.3118
 BZINTS: Fermi energy:  5.986794;453.000000 electrons
         Band energy:***********;  BLOECHL correction: -0.223233
       DOS:  cpu time    0.0030: real time    0.0030
    CHARGE:  cpu time    0.6677: real time    0.6713
    MIXING:  cpu time    0.0059: real time    0.0059
    --------------------------------------------
      LOOP:  cpu time   22.1807: real time   22.3107

 eigenvalue-minimisations  :  6072
 total energy-change (2. order) : 0.1665968E+03  (-0.2654577E+02)
 number of electron     452.9999924 magnetization      48.3666833
 augmentation part      142.9580207 magnetization      44.3922495

 Broyden mixing:
  rms(total) = 0.58158E+01    rms(broyden)= 0.58135E+01
  rms(prec ) = 0.66715E+01
  weight for this iteration     100.00

 eigenvalues of (default mixing * dielectric matrix)
  average eigenvalue GAMMA=   0.5993
  0.5993  0.5993

 Free energy of the ion-electron system (eV)
  ---------------------------------------------------
  alpha Z        PSCENC =      1269.90711959
  Ewald energy   TEWEN  =    -29629.69088226
  -Hartree energ DENC   =    -22458.84639234
  -exchange      EXHF   =         0.00000000
  -V(xc)+E(xc)   XCENC  =      1669.41660955
  PAW double counting   =     53036.89163249   -55857.70681230
  entropy T*S    EENTRO =         0.00000000
  eigenvalues    EBANDS =     -4719.48457266
  atomic energy  EATOM  =     56403.09886247
  Solvation  Ediel_sol  =         0.00000000
  ---------------------------------------------------
  free energy    TOTEN  =      -286.41443545 eV

  energy without entropy =     -286.41443545  energy(sigma->0) =     -286.41443545


--------------------------------------------------------------------------------------------------------




--------------------------------------- Iteration      1(   8)  ---------------------------------------


    POTLOK:  cpu time    0.2768: real time    0.2787
    SETDIJ:  cpu time    0.0266: real time    0.0267
     EDDAV:  cpu time   22.3409: real time   22.4771
 BZINTS: Fermi energy:  6.712938;453.000000 electrons
         Band energy:***********;  BLOECHL correction: -0.351427
       DOS:  cpu time    0.0033: real time    0.0033
    CHARGE:  cpu time    0.6645: real time    0.6682
    MIXING:  cpu time    0.0066: real time    0.0067
    --------------------------------------------
      LOOP:  cpu time   23.3187: real time   23.4607

 eigenvalue-minimisations  :  6485
 total energy-change (2. order) :-0.3254011E+01  (-0.8165477E+01)
 number of electron     452.9999947 magnetization      20.2389654
 augmentation part      130.9153864 magnetization      19.5414329

 Broyden mixing:
  rms(total) = 0.29933E+01    rms(broyden)= 0.29910E+01
  rms(prec ) = 0.31092E+01
  weight for this iteration     100.00

 eigenvalues of (default mixing * dielectric matrix)
  average eigenvalue GAMMA=   0.7949
  1.2705  0.4334  0.6807

 Free energy of the ion-electron system (eV)
  ---------------------------------------------------
  alpha Z        PSCENC =      1269.90711959
  Ewald energy   TEWEN  =    -29629.69088226
  -Hartree energ DENC   =    -22772.66184595
  -exchange      EXHF   =         0.00000000
  -V(xc)+E(xc)   XCENC  =      1669.98608756
  PAW double counting   =     58373.70030872   -61227.69209182
  entropy T*S    EENTRO =         0.00000000
  eigenvalues    EBANDS =     -4376.31600473
  atomic energy  EATOM  =     56403.09886247
  Solvation  Ediel_sol  =         0.00000000
  ---------------------------------------------------
  free energy    TOTEN  =      -289.66844642 eV

  energy without entropy =     -289.66844642  energy(sigma->0) =     -289.66844642


--------------------------------------------------------------------------------------------------------




--------------------------------------- Iteration      1(   9)  ---------------------------------------


    POTLOK:  cpu time    0.2809: real time    0.2826
    SETDIJ:  cpu time    0.0261: real time    0.0262
     EDDAV:  cpu time   22.1493: real time   22.2839
 BZINTS: Fermi energy:  6.546007;453.000000 electrons
         Band energy:***********;  BLOECHL correction: -0.016761
       DOS:  cpu time    0.0035: real time    0.0035
    CHARGE:  cpu time    0.6707: real time    0.6744
    MIXING:  cpu time    0.0067: real time    0.0067
    --------------------------------------------
      LOOP:  cpu time   23.1371: real time   23.2774

 eigenvalue-minimisations  :  6424
 total energy-change (2. order) :-0.1269479E+02  (-0.2832366E+01)
 number of electron     452.9999888 magnetization      13.0732772
 augmentation part      131.9441861 magnetization      11.7289285

 Broyden mixing:
  rms(total) = 0.38825E+01    rms(broyden)= 0.38812E+01
  rms(prec ) = 0.56317E+01
  weight for this iteration     100.00

 eigenvalues of (default mixing * dielectric matrix)
  average eigenvalue GAMMA=   0.7756
  1.5749  0.6272  0.4501  0.4501

 Free energy of the ion-electron system (eV)
  ---------------------------------------------------
  alpha Z        PSCENC =      1269.90711959
  Ewald energy   TEWEN  =    -29629.69088226
  -Hartree energ DENC   =    -22735.86412975
  -exchange      EXHF   =         0.00000000
  -V(xc)+E(xc)   XCENC  =      1664.12667644
  PAW double counting   =     63116.15032763   -65951.19836987
  entropy T*S    EENTRO =         0.00000000
  eigenvalues    EBANDS =     -4438.89283599
  atomic energy  EATOM  =     56403.09886247
  Solvation  Ediel_sol  =         0.00000000
  ---------------------------------------------------
  free energy    TOTEN  =      -302.36323173 eV

  energy without entropy =     -302.36323173  energy(sigma->0) =     -302.36323173


--------------------------------------------------------------------------------------------------------




--------------------------------------- Iteration      1(  10)  ---------------------------------------


    POTLOK:  cpu time    0.2799: real time    0.2815
    SETDIJ:  cpu time    0.0264: real time    0.0266
     EDDAV:  cpu time   21.0976: real time   21.2227
 BZINTS: Fermi energy:  6.774023;453.000000 electrons
         Band energy:***********;  BLOECHL correction: -0.207955
       DOS:  cpu time    0.0030: real time    0.0030
    CHARGE:  cpu time    0.6780: real time    0.6814
    MIXING:  cpu time    0.0080: real time    0.0080
    --------------------------------------------
      LOOP:  cpu time   22.0929: real time   22.2233

 eigenvalue-minimisations  :  6056
 total energy-change (2. order) : 0.1602812E+01  (-0.3902297E+01)
 number of electron     452.9999959 magnetization      10.0193641
 augmentation part      132.8904883 magnetization       8.0023571

 Broyden mixing:
  rms(total) = 0.28643E+01    rms(broyden)= 0.28631E+01
  rms(prec ) = 0.42311E+01
  weight for this iteration     100.00

 eigenvalues of (default mixing * dielectric matrix)
  average eigenvalue GAMMA=   0.6980
  1.6143  0.6014  0.6014  0.5118  0.1610

 Free energy of the ion-electron system (eV)
  ---------------------------------------------------
  alpha Z        PSCENC =      1269.90711959
  Ewald energy   TEWEN  =    -29629.69088226
  -Hartree energ DENC   =    -22736.93280793
  -exchange      EXHF   =         0.00000000
  -V(xc)+E(xc)   XCENC  =      1663.30741280
  PAW double counting   =     64053.66541088   -66888.29586670
  entropy T*S    EENTRO =         0.00000000
  eigenvalues    EBANDS =     -4435.81966877
  atomic energy  EATOM  =     56403.09886247
  Solvation  Ediel_sol  =         0.00000000
  ---------------------------------------------------
  free energy    TOTEN  =      -300.76041992 eV

  energy without entropy =     -300.76041992  energy(sigma->0) =     -300.76041992


--------------------------------------------------------------------------------------------------------




--------------------------------------- Iteration      1(  11)  ---------------------------------------


    POTLOK:  cpu time    0.3093: real time    0.3114
    SETDIJ:  cpu time    0.0266: real time    0.0267
     EDDAV:  cpu time   21.2415: real time   21.3721
 BZINTS: Fermi energy:  6.916403;453.000000 electrons
         Band energy:***********;  BLOECHL correction: -0.470363
       DOS:  cpu time    0.0031: real time    0.0031
    CHARGE:  cpu time    0.6943: real time    0.6978
    MIXING:  cpu time    0.0085: real time    0.0086
    --------------------------------------------
      LOOP:  cpu time   22.2833: real time   22.4198

 eigenvalue-minimisations  :  6069
 total energy-change (2. order) : 0.1496929E+01  (-0.1148442E+01)
 number of electron     452.9999933 magnetization       9.0862171
 augmentation part      132.1540510 magnetization       7.4939444

 Broyden mixing:
  rms(total) = 0.10303E+01    rms(broyden)= 0.10293E+01
  rms(prec ) = 0.13779E+01
  weight for this iteration     100.00

 eigenvalues of (default mixing * dielectric matrix)
  average eigenvalue GAMMA=   0.6973
  1.2192  1.2192  0.5520  0.5520  0.4906  0.1505

 Free energy of the ion-electron system (eV)
  ---------------------------------------------------
  alpha Z        PSCENC =      1269.90711959
  Ewald energy   TEWEN  =    -29629.69088226
  -Hartree energ DENC   =    -22773.81498157
  -exchange      EXHF   =         0.00000000
  -V(xc)+E(xc)   XCENC  =      1663.83248018
  PAW double counting   =     63972.44929275   -66817.27322044
  entropy T*S    EENTRO =         0.00000000
  eigenvalues    EBANDS =     -4387.77216212
  atomic energy  EATOM  =     56403.09886247
  Solvation  Ediel_sol  =         0.00000000
  ---------------------------------------------------
  free energy    TOTEN  =      -299.26349140 eV

  energy without entropy =     -299.26349140  energy(sigma->0) =     -299.26349140


--------------------------------------------------------------------------------------------------------




--------------------------------------- Iteration      1(  12)  ---------------------------------------


    POTLOK:  cpu time    0.3032: real time    0.3052
    SETDIJ:  cpu time    0.0268: real time    0.0269
     EDDAV:  cpu time   21.4512: real time   21.5773
 BZINTS: Fermi energy:  6.889210;453.000000 electrons
         Band energy:***********;  BLOECHL correction: -0.325833
       DOS:  cpu time    0.0029: real time    0.0029
    CHARGE:  cpu time    0.7000: real time    0.7036
    MIXING:  cpu time    0.0091: real time    0.0092
    --------------------------------------------
      LOOP:  cpu time   22.4933: real time   22.6251

 eigenvalue-minimisations  :  6224
 total energy-change (2. order) :-0.6487049E+00  (-0.4405795E+00)
 number of electron     452.9999932 magnetization       7.6335869
 augmentation part      131.9538594 magnetization       6.5016768

 Broyden mixing:
  rms(total) = 0.14408E+01    rms(broyden)= 0.14398E+01
  rms(prec ) = 0.20156E+01
  weight for this iteration     100.00

 eigenvalues of (default mixing * dielectric matrix)
  average eigenvalue GAMMA=   0.6745
  1.3975  1.3975  0.5684  0.5684  0.4890  0.1504  0.1504

 Free energy of the ion-electron system (eV)
  ---------------------------------------------------
  alpha Z        PSCENC =      1269.90711959
  Ewald energy   TEWEN  =    -29629.69088226
  -Hartree energ DENC   =    -22779.78022012
  -exchange      EXHF   =         0.00000000
  -V(xc)+E(xc)   XCENC  =      1663.92856535
  PAW double counting   =     63735.11126194   -66581.08901715
  entropy T*S    EENTRO =         0.00000000
  eigenvalues    EBANDS =     -4381.39788612
  atomic energy  EATOM  =     56403.09886247
  Solvation  Ediel_sol  =         0.00000000
  ---------------------------------------------------
  free energy    TOTEN  =      -299.91219631 eV

  energy without entropy =     -299.91219631  energy(sigma->0) =     -299.91219631


--------------------------------------------------------------------------------------------------------




--------------------------------------- Iteration      1(  13)  ---------------------------------------


    POTLOK:  cpu time    0.3428: real time    0.3452
    SETDIJ:  cpu time    0.0269: real time    0.0270
     EDDAV:  cpu time   20.7648: real time   20.8871
 BZINTS: Fermi energy:  6.968730;453.000000 electrons
         Band energy:***********;  BLOECHL correction: -0.503065
       DOS:  cpu time    0.0029: real time    0.0029
    CHARGE:  cpu time    0.6966: real time    0.7007
    MIXING:  cpu time    0.0082: real time    0.0082
    --------------------------------------------
      LOOP:  cpu time   21.8421: real time   21.9711

 eigenvalue-minimisations  :  5952
 total energy-change (2. order) : 0.1819053E+00  (-0.6401179E+00)
 number of electron     452.9999941 magnetization       6.6927960
 augmentation part      132.0276061 magnetization       5.4376846

 Broyden mixing:
  rms(total) = 0.67368E+00    rms(broyden)= 0.67264E+00
  rms(prec ) = 0.90110E+00
  weight for this iteration     100.00

 eigenvalues of (default mixing * dielectric matrix)
  average eigenvalue GAMMA=   0.6628
  1.4860  1.4860  0.5775  0.5775  0.4398  0.4398  0.1477  0.1477

 Free energy of the ion-electron system (eV)
  ---------------------------------------------------
  alpha Z        PSCENC =      1269.90711959
  Ewald energy   TEWEN  =    -29629.69088226
  -Hartree energ DENC   =    -22784.23901960
  -exchange      EXHF   =         0.00000000
  -V(xc)+E(xc)   XCENC  =      1664.06707753
  PAW double counting   =     63499.01189114   -66345.41510025
  entropy T*S    EENTRO =         0.00000000
  eigenvalues    EBANDS =     -4376.47023960
  atomic energy  EATOM  =     56403.09886247
  Solvation  Ediel_sol  =         0.00000000
  ---------------------------------------------------
  free energy    TOTEN  =      -299.73029098 eV

  energy without entropy =     -299.73029098  energy(sigma->0) =     -299.73029098


--------------------------------------------------------------------------------------------------------




--------------------------------------- Iteration      1(  14)  ---------------------------------------


    POTLOK:  cpu time    0.3057: real time    0.3078
    SETDIJ:  cpu time    0.0276: real time    0.0278
     EDDAV:  cpu time   20.7035: real time   20.8273
 BZINTS: Fermi energy:  6.957964;453.000000 electrons
         Band energy:***********;  BLOECHL correction: -0.483260
       DOS:  cpu time    0.0031: real time    0.0032
    CHARGE:  cpu time    0.7020: real time    0.7059
    MIXING:  cpu time    0.0079: real time    0.0079
    --------------------------------------------
      LOOP:  cpu time   21.7498: real time   21.8798

 eigenvalue-minimisations  :  5952
 total energy-change (2. order) :-0.4344332E-01  (-0.1914349E+00)
 number of electron     452.9999938 magnetization       4.0836982
 augmentation part      132.0356775 magnetization       2.9478784

 Broyden mixing:
  rms(total) = 0.58770E+00    rms(broyden)= 0.58725E+00
  rms(prec ) = 0.78746E+00
  weight for this iteration     100.00

 eigenvalues of (default mixing * dielectric matrix)
  average eigenvalue GAMMA=   0.6909
  1.6253  1.6253  0.6935  0.6935  0.5597  0.5597  0.1701  0.1531  0.1375

 Free energy of the ion-electron system (eV)
  ---------------------------------------------------
  alpha Z        PSCENC =      1269.90711959
  Ewald energy   TEWEN  =    -29629.69088226
  -Hartree energ DENC   =    -22786.48357487
  -exchange      EXHF   =         0.00000000
  -V(xc)+E(xc)   XCENC  =      1664.13877723
  PAW double counting   =     63436.72142577   -66283.00078091
  entropy T*S    EENTRO =         0.00000000
  eigenvalues    EBANDS =     -4374.46468133
  atomic energy  EATOM  =     56403.09886247
  Solvation  Ediel_sol  =         0.00000000
  ---------------------------------------------------
  free energy    TOTEN  =      -299.77373430 eV

  energy without entropy =     -299.77373430  energy(sigma->0) =     -299.77373430


--------------------------------------------------------------------------------------------------------




--------------------------------------- Iteration      1(  15)  ---------------------------------------


    POTLOK:  cpu time    0.3196: real time    0.3219
    SETDIJ:  cpu time    0.0268: real time    0.0270
     EDDAV:  cpu time   20.7969: real time   20.9161
 BZINTS: Fermi energy:  6.955937;453.000000 electrons
         Band energy:***********;  BLOECHL correction: -0.462611
       DOS:  cpu time    0.0029: real time    0.0029
    CHARGE:  cpu time    0.6983: real time    0.7017
    MIXING:  cpu time    0.0090: real time    0.0090
    --------------------------------------------
      LOOP:  cpu time   21.8535: real time   21.9786

 eigenvalue-minimisations  :  5984
 total energy-change (2. order) :-0.1582910E+00  (-0.1634121E+00)
 number of electron     452.9999937 magnetization       3.2756287
 augmentation part      132.1364131 magnetization       2.3864794

 Broyden mixing:
  rms(total) = 0.54918E+00    rms(broyden)= 0.54882E+00
  rms(prec ) = 0.78996E+00
  weight for this iteration     100.00

 eigenvalues of (default mixing * dielectric matrix)
  average eigenvalue GAMMA=   0.6743
  1.7107  1.7107  0.8078  0.6742  0.5448  0.5448  0.3010  0.1663  0.1488  0.1337

 Free energy of the ion-electron system (eV)
  ---------------------------------------------------
  alpha Z        PSCENC =      1269.90711959
  Ewald energy   TEWEN  =    -29629.69088226
  -Hartree energ DENC   =    -22792.41699060
  -exchange      EXHF   =         0.00000000
  -V(xc)+E(xc)   XCENC  =      1664.32798860
  PAW double counting   =     63357.40660758   -66202.84682601
  entropy T*S    EENTRO =         0.00000000
  eigenvalues    EBANDS =     -4369.71790470
  atomic energy  EATOM  =     56403.09886247
  Solvation  Ediel_sol  =         0.00000000
  ---------------------------------------------------
  free energy    TOTEN  =      -299.93202533 eV

  energy without entropy =     -299.93202533  energy(sigma->0) =     -299.93202533


--------------------------------------------------------------------------------------------------------




--------------------------------------- Iteration      1(  16)  ---------------------------------------


    POTLOK:  cpu time    0.3104: real time    0.3126
    SETDIJ:  cpu time    0.0274: real time    0.0275
     EDDAV:  cpu time   20.6099: real time   20.7383
 BZINTS: Fermi energy:  6.973256;453.000000 electrons
         Band energy:***********;  BLOECHL correction: -0.513913
       DOS:  cpu time    0.0032: real time    0.0032
    CHARGE:  cpu time    0.6984: real time    0.7020
    MIXING:  cpu time    0.0096: real time    0.0096
    --------------------------------------------
      LOOP:  cpu time   21.6588: real time   21.7933

 eigenvalue-minimisations  :  5920
 total energy-change (2. order) : 0.1106166E+00  (-0.6243628E-01)
 number of electron     452.9999939 magnetization       2.2149399
 augmentation part      132.1450140 magnetization       1.4622786

 Broyden mixing:
  rms(total) = 0.21081E+00    rms(broyden)= 0.21036E+00
  rms(prec ) = 0.27144E+00
  weight for this iteration     100.00

 eigenvalues of (default mixing * dielectric matrix)
  average eigenvalue GAMMA=   0.6983
  1.9722  1.6532  0.9128  0.9128  0.5597  0.5597  0.4882  0.1886  0.1512  0.1512
  0.1319

 Free energy of the ion-electron system (eV)
  ---------------------------------------------------
  alpha Z        PSCENC =      1269.90711959
  Ewald energy   TEWEN  =    -29629.69088226
  -Hartree energ DENC   =    -22795.02518694
  -exchange      EXHF   =         0.00000000
  -V(xc)+E(xc)   XCENC  =      1664.41151079
  PAW double counting   =     63344.93066660   -66190.09713590
  entropy T*S    EENTRO =         0.00000000
  eigenvalues    EBANDS =     -4367.35636308
  atomic energy  EATOM  =     56403.09886247
  Solvation  Ediel_sol  =         0.00000000
  ---------------------------------------------------
  free energy    TOTEN  =      -299.82140875 eV

  energy without entropy =     -299.82140875  energy(sigma->0) =     -299.82140875


--------------------------------------------------------------------------------------------------------




--------------------------------------- Iteration      1(  17)  ---------------------------------------


    POTLOK:  cpu time    0.3022: real time    0.3056
    SETDIJ:  cpu time    0.0283: real time    0.0284
     EDDAV:  cpu time   20.0267: real time   20.1448
 BZINTS: Fermi energy:  6.982462;453.000000 electrons
         Band energy:***********;  BLOECHL correction: -0.516338
       DOS:  cpu time    0.0032: real time    0.0032
    CHARGE:  cpu time    0.6994: real time    0.7031
    MIXING:  cpu time    0.0097: real time    0.0097
    --------------------------------------------
      LOOP:  cpu time   21.0696: real time   21.1950

 eigenvalue-minimisations  :  5728
 total energy-change (2. order) : 0.7916612E-03  (-0.9449855E-02)
 number of electron     452.9999938 magnetization       1.8928929
 augmentation part      132.0521962 magnetization       1.3341698

 Broyden mixing:
  rms(total) = 0.78765E-01    rms(broyden)= 0.78708E-01
  rms(prec ) = 0.82444E-01
  weight for this iteration     100.00

 eigenvalues of (default mixing * dielectric matrix)
  average eigenvalue GAMMA=   0.7367
  2.3257  1.3161  1.1662  1.1662  0.5902  0.5902  0.5309  0.5309  0.1885  0.1518
  0.1518  0.1319

 Free energy of the ion-electron system (eV)
  ---------------------------------------------------
  alpha Z        PSCENC =      1269.90711959
  Ewald energy   TEWEN  =    -29629.69088226
  -Hartree energ DENC   =    -22800.16777229
  -exchange      EXHF   =         0.00000000
  -V(xc)+E(xc)   XCENC  =      1664.51377028
  PAW double counting   =     63398.51928306   -66243.10614107
  entropy T*S    EENTRO =         0.00000000
  eigenvalues    EBANDS =     -4362.89485687
  atomic energy  EATOM  =     56403.09886247
  Solvation  Ediel_sol  =         0.00000000
  ---------------------------------------------------
  free energy    TOTEN  =      -299.82061709 eV

  energy without entropy =     -299.82061709  energy(sigma->0) =     -299.82061709


--------------------------------------------------------------------------------------------------------




--------------------------------------- Iteration      1(  18)  ---------------------------------------


    POTLOK:  cpu time    0.3257: real time    0.3280
    SETDIJ:  cpu time    0.0273: real time    0.0274
     EDDAV:  cpu time   20.4566: real time   20.5748
 BZINTS: Fermi energy:  6.982666;453.000000 electrons
         Band energy:***********;  BLOECHL correction: -0.521058
       DOS:  cpu time    0.0031: real time    0.0032
    CHARGE:  cpu time    0.7252: real time    0.7291
    MIXING:  cpu time    0.0103: real time    0.0103
    --------------------------------------------
      LOOP:  cpu time   21.5482: real time   21.6728

 eigenvalue-minimisations  :  5848
 total energy-change (2. order) :-0.8655854E-02  (-0.1422150E-02)
 number of electron     452.9999938 magnetization       1.7242503
 augmentation part      132.0506682 magnetization       1.2371714

 Broyden mixing:
  rms(total) = 0.57953E-01    rms(broyden)= 0.57895E-01
  rms(prec ) = 0.61458E-01
  weight for this iteration     100.00

 eigenvalues of (default mixing * dielectric matrix)
  average eigenvalue GAMMA=   0.8021
  2.4979  1.4636  1.4636  1.3423  0.7140  0.7140  0.5608  0.5608  0.4868  0.1883
  0.1518  0.1518  0.1319

 Free energy of the ion-electron system (eV)
  ---------------------------------------------------
  alpha Z        PSCENC =      1269.90711959
  Ewald energy   TEWEN  =    -29629.69088226
  -Hartree energ DENC   =    -22800.20056426
  -exchange      EXHF   =         0.00000000
  -V(xc)+E(xc)   XCENC  =      1664.47876894
  PAW double counting   =     63445.58864035   -66289.67534090
  entropy T*S    EENTRO =         0.00000000
  eigenvalues    EBANDS =     -4363.33587687
  atomic energy  EATOM  =     56403.09886247
  Solvation  Ediel_sol  =         0.00000000
  ---------------------------------------------------
  free energy    TOTEN  =      -299.82927294 eV

  energy without entropy =     -299.82927294  energy(sigma->0) =     -299.82927294


--------------------------------------------------------------------------------------------------------




--------------------------------------- Iteration      1(  19)  ---------------------------------------


    POTLOK:  cpu time    0.3191: real time    0.3212
    SETDIJ:  cpu time    0.0277: real time    0.0278
     EDDAV:  cpu time   22.3422: real time   22.4722
 BZINTS: Fermi energy:  6.984335;453.000000 electrons
         Band energy:***********;  BLOECHL correction: -0.524432
       DOS:  cpu time    0.0031: real time    0.0031
    CHARGE:  cpu time    0.7141: real time    0.7181
    MIXING:  cpu time    0.0101: real time    0.0102
    --------------------------------------------
      LOOP:  cpu time   23.4163: real time   23.5526

 eigenvalue-minimisations  :  6584
 total energy-change (2. order) :-0.5361993E-02  (-0.2170074E-03)
 number of electron     452.9999938 magnetization       1.5096860
 augmentation part      132.0333139 magnetization       1.0815088

 Broyden mixing:
  rms(total) = 0.44288E-01    rms(broyden)= 0.44218E-01
  rms(prec ) = 0.46773E-01
  weight for this iteration     100.00

 eigenvalues of (default mixing * dielectric matrix)
  average eigenvalue GAMMA=   0.8429
  2.7444  1.6362  1.6362  1.2671  0.8435  0.8435  0.5745  0.5745  0.5532  0.5031
  0.1883  0.1518  0.1518  0.1319

 Free energy of the ion-electron system (eV)
  ---------------------------------------------------
  alpha Z        PSCENC =      1269.90711959
  Ewald energy   TEWEN  =    -29629.69088226
  -Hartree energ DENC   =    -22800.56300208
  -exchange      EXHF   =         0.00000000
  -V(xc)+E(xc)   XCENC  =      1664.47817105
  PAW double counting   =     63440.14106007   -66284.00869097
  entropy T*S    EENTRO =         0.00000000
  eigenvalues    EBANDS =     -4363.19727281
  atomic energy  EATOM  =     56403.09886247
  Solvation  Ediel_sol  =         0.00000000
  ---------------------------------------------------
  free energy    TOTEN  =      -299.83463493 eV

  energy without entropy =     -299.83463493  energy(sigma->0) =     -299.83463493


--------------------------------------------------------------------------------------------------------




--------------------------------------- Iteration      1(  20)  ---------------------------------------


    POTLOK:  cpu time    0.3165: real time    0.3185
    SETDIJ:  cpu time    0.0278: real time    0.0279
     EDDAV:  cpu time   22.0147: real time   22.1446
 BZINTS: Fermi energy:  6.985793;453.000000 electrons
         Band energy:***********;  BLOECHL correction: -0.526148
       DOS:  cpu time    0.0032: real time    0.0033
    CHARGE:  cpu time    0.7178: real time    0.7217
    MIXING:  cpu time    0.0121: real time    0.0121
    --------------------------------------------
      LOOP:  cpu time   23.0920: real time   23.2281

 eigenvalue-minimisations  :  6456
 total energy-change (2. order) :-0.3166725E-02  (-0.1062339E-03)
 number of electron     452.9999938 magnetization       1.2680891
 augmentation part      132.0235663 magnetization       0.8897289

 Broyden mixing:
  rms(total) = 0.32614E-01    rms(broyden)= 0.32547E-01
  rms(prec ) = 0.33787E-01
  weight for this iteration     100.00

 eigenvalues of (default mixing * dielectric matrix)
  average eigenvalue GAMMA=   0.9131
  3.0873  1.7659  1.7659  1.5039  1.0020  1.0020  0.6520  0.6520  0.5750  0.5750
  0.4914  0.1883  0.1518  0.1518  0.1319

 Free energy of the ion-electron system (eV)
  ---------------------------------------------------
  alpha Z        PSCENC =      1269.90711959
  Ewald energy   TEWEN  =    -29629.69088226
  -Hartree energ DENC   =    -22801.03381111
  -exchange      EXHF   =         0.00000000
  -V(xc)+E(xc)   XCENC  =      1664.48925748
  PAW double counting   =     63420.47817396   -66264.25051967
  entropy T*S    EENTRO =         0.00000000
  eigenvalues    EBANDS =     -4362.83600213
  atomic energy  EATOM  =     56403.09886247
  Solvation  Ediel_sol  =         0.00000000
  ---------------------------------------------------
  free energy    TOTEN  =      -299.83780166 eV

  energy without entropy =     -299.83780166  energy(sigma->0) =     -299.83780166


--------------------------------------------------------------------------------------------------------




--------------------------------------- Iteration      1(  21)  ---------------------------------------


    POTLOK:  cpu time    0.3208: real time    0.3229
    SETDIJ:  cpu time    0.0272: real time    0.0274
     EDDAV:  cpu time   22.4409: real time   22.5742
 BZINTS: Fermi energy:  6.987422;453.000000 electrons
         Band energy:***********;  BLOECHL correction: -0.527637
       DOS:  cpu time    0.0031: real time    0.0032
    CHARGE:  cpu time    0.7155: real time    0.7194
    MIXING:  cpu time    0.0123: real time    0.0124
    --------------------------------------------
      LOOP:  cpu time   23.5199: real time   23.6595

 eigenvalue-minimisations  :  6584
 total energy-change (2. order) :-0.2743295E-02  (-0.1124444E-03)
 number of electron     452.9999938 magnetization       0.9793952
 augmentation part      132.0127334 magnetization       0.6544905

 Broyden mixing:
  rms(total) = 0.22877E-01    rms(broyden)= 0.22775E-01
  rms(prec ) = 0.23672E-01
  weight for this iteration     100.00

 eigenvalues of (default mixing * dielectric matrix)
  average eigenvalue GAMMA=   0.9987
  3.8547  2.1049  2.1049  1.2909  1.2909  0.8571  0.8571  0.7403  0.5740  0.5740
  0.6135  0.4937  0.1883  0.1518  0.1518  0.1319

 Free energy of the ion-electron system (eV)
  ---------------------------------------------------
  alpha Z        PSCENC =      1269.90711959
[...]
 -----------------------------------------------------------------------------------
     -0.00314     -0.00066     -0.00066        -0.028721      0.016698      0.016698
      2.38605      7.20493      7.20493         0.000040      0.006005      0.006005
      4.80202     -0.00066      4.80451        -0.016698      0.016698      0.028721
      4.80202      4.80451     -0.00066        -0.016698      0.028721      0.016698
      7.19915      2.41531      7.20493        -0.006005     -0.000040      0.006005
      7.19915      7.20493      2.41531        -0.006005      0.006005     -0.000040
      2.15562      2.64574      2.64574         0.672954     -0.672954     -0.672954
      1.20949      1.20200      6.04539         0.008653      0.028837     -0.006718
      8.37648      8.38731      6.02761        -0.005909      0.004153      0.005909
      3.59666      1.20470      8.43937        -0.040671      0.040671     -0.007626
      5.99555      8.40853      8.40853        -0.017753      0.017753      0.017753
      1.21836      3.58301      8.38007        -0.011785      0.011785      0.043699
      8.37648      6.02761      8.38731        -0.005909      0.005909      0.004153
      3.59937      3.59187      6.04539        -0.028837     -0.008653     -0.006718
      6.01677      6.02761      6.02761        -0.004153      0.005909      0.005909
      3.59666      8.43937      1.20470        -0.040671     -0.007626      0.040671
      3.59937      6.04539      3.59187        -0.028837     -0.006718     -0.008653
      1.20949      6.04539      1.20200         0.008653     -0.006718      0.028837
      1.21836      8.38007      3.58301        -0.011785      0.043699      0.011785
      8.35870      3.59187      1.20200         0.006718     -0.008653      0.028837
      8.35870      1.20200      3.59187         0.006718      0.028837     -0.008653
      5.96472      1.20470      1.20470         0.007626      0.040671      0.040671
      6.02401      3.58301      3.58301        -0.043699      0.011785      0.011785
      1.00799      1.07863      3.79338         0.063725      0.052920     -0.063725
      6.12675      8.27733      6.14556        -0.009194      0.009194      0.017470
      3.65964      1.14172      1.14172        -0.016844      0.016844      0.016844
      8.25853      8.27733      8.27733        -0.017470      0.009194      0.009194
      1.00799      3.79338      1.07863         0.063725     -0.063725      0.052920
      6.12675      6.14556      8.27733        -0.009194      0.017470      0.009194
      3.72274      3.79338      3.79338        -0.052920     -0.063725     -0.063725
      8.24208      6.16201      6.16201        -0.000651      0.000651      0.000651
      1.05508      5.87022      8.50374        -0.008062      0.008334      0.020183
      3.47360      8.29020      3.45713        -0.017097     -0.001039      0.037692
      1.05508      8.50374      5.87022        -0.008062      0.020183      0.008334
      3.47818      6.15436      1.32319        -0.014166      0.030546      0.014166
      3.72480      8.54395      8.54395        -0.026132      0.019229      0.019229
      1.37047      6.15136      3.43089        -0.017806      0.083001      0.017806
      3.71742      5.88540      5.88540        -0.016880     -0.010610     -0.010610
      1.34424      8.29020      1.32777        -0.037692     -0.001039      0.017097
      5.86014      1.07656      8.54395        -0.019229      0.026132      0.019229
      3.47818      1.32319      6.15436        -0.014166      0.014166      0.030546
      8.53387      3.74628      8.50374        -0.008334      0.008062      0.020183
      1.37047      3.43089      6.15136        -0.017806      0.017806      0.083001
      8.51869      1.08394      5.88540         0.010610      0.016880     -0.010610
      1.34424      1.32777      8.29020        -0.037692      0.017097     -0.001039
      5.90035      3.74628      5.87022        -0.020183      0.008062      0.008334
      3.47360      3.45713      8.29020        -0.017097      0.037692     -0.001039
      5.90035      5.87022      3.74628        -0.020183      0.008334      0.008062
      8.51869      5.88540      1.08394         0.010610     -0.010610      0.016880
      5.86014      8.54395      1.07656        -0.019229      0.019229      0.026132
      8.53387      8.50374      3.74628        -0.008334      0.020183      0.008062
      8.25272      3.43089      3.43089        -0.083001      0.017806      0.017806
      8.24973      1.32319      1.32319        -0.030546      0.014166      0.014166
      6.11389      1.32777      3.45713         0.001039      0.017097      0.037692
      6.11389      3.45713      1.32777         0.001039      0.037692      0.017097
 -----------------------------------------------------------------------------------
    total drift:                                0.019607     -0.019609     -0.019610


--------------------------------------------------------------------------------------------------------



  FREE ENERGIE OF THE ION-ELECTRON SYSTEM (eV)
  ---------------------------------------------------
  free  energy   TOTEN  =      -299.98562397 eV

  energy  without entropy=     -299.98562397  energy(sigma->0) =     -299.98562397
 
 d Force = 0.6751269E-02[ 0.628E-02, 0.722E-02]  d Energy = 0.6005952E-02 0.745E-03
 d Force = 0.1421527E+00[ 0.134E+00, 0.151E+00]  d Ewald  = 0.1421460E+00 0.674E-05


--------------------------------------------------------------------------------------------------------


    POTLOK:  cpu time    0.2889: real time    0.2902


--------------------------------------------------------------------------------------------------------


  energy of chain is (eV)         0.000000 for this image         0.000000
  tangential force (eV/A)        -1.167120
  left and right image   0.452780  0.446160 A
 TANGENT                                        CHAIN-FORCE (eV/Angst)
 -----------------------------------------------------------------------------------
      0.00268     -0.00186     -0.00186         0.003128     -0.002170     -0.002170
     -0.00045      0.01746      0.01746        -0.000524      0.020378      0.020378
      0.00186     -0.00186     -0.00268         0.002170     -0.002170     -0.003128
      0.00186     -0.00268     -0.00186         0.002170     -0.003128     -0.002170
     -0.01746      0.00045      0.01746        -0.020378      0.000524      0.020378
     -0.01746      0.01746      0.00045        -0.020378      0.020378      0.000524
     -0.56081      0.56081      0.56081        -0.654530      0.654530      0.654530
     -0.01475     -0.02203      0.01529        -0.017210     -0.025706      0.017850
     -0.00348     -0.00388      0.00348        -0.004065     -0.004530      0.004065
      0.01062     -0.01062      0.02746         0.012393     -0.012393      0.032047
      0.00158     -0.00158     -0.00158         0.001847     -0.001847     -0.001847
     -0.00213      0.00213     -0.02827        -0.002488      0.002488     -0.032990
     -0.00348      0.00348     -0.00388        -0.004065      0.004065     -0.004530
      0.02203      0.01475      0.01529         0.025706      0.017210      0.017850
      0.00388      0.00348      0.00348         0.004530      0.004065      0.004065
      0.01062      0.02746     -0.01062         0.012393      0.032047     -0.012393
      0.02203      0.01529      0.01475         0.025706      0.017850      0.017210
     -0.01475      0.01529     -0.02203        -0.017210      0.017850     -0.025706
     -0.00213     -0.02827      0.00213        -0.002488     -0.032990      0.002488
     -0.01529      0.01475     -0.02203        -0.017850      0.017210     -0.025706
     -0.01529     -0.02203      0.01475        -0.017850     -0.025706      0.017210
     -0.02746     -0.01062     -0.01062        -0.032047     -0.012393     -0.012393
      0.02827      0.00213      0.00213         0.032990      0.002488      0.002488
     -0.05859     -0.04050      0.05859        -0.068383     -0.047271      0.068383
     -0.00004      0.00004     -0.00157        -0.000044      0.000044     -0.001832
     -0.00517      0.00517      0.00517        -0.006037      0.006037      0.006037
      0.00157      0.00004      0.00004         0.001832      0.000044      0.000044
     -0.05859      0.05859     -0.04050        -0.068383      0.068383     -0.047271
     -0.00004     -0.00157      0.00004        -0.000044     -0.001832      0.000044
      0.04050      0.05859      0.05859         0.047271      0.068383      0.068383
      0.00189     -0.00189     -0.00189         0.002211     -0.002211     -0.002211
     -0.00568      0.00736     -0.01270        -0.006627      0.008585     -0.014822
      0.00035      0.00963     -0.00838         0.000412      0.011243     -0.009785
     -0.00568     -0.01270      0.00736        -0.006627     -0.014822      0.008585
      0.00354     -0.00259     -0.00354         0.004135     -0.003028     -0.004135
      0.01037      0.00735      0.00735         0.012106      0.008581      0.008581
      0.01241     -0.05710     -0.01241         0.014479     -0.066639     -0.014479
      0.00988      0.02477      0.02477         0.011526      0.028914      0.028914
      0.00838      0.00963     -0.00035         0.009785      0.011243     -0.000412
     -0.00735     -0.01037      0.00735        -0.008581     -0.012106      0.008581
      0.00354     -0.00354     -0.00259         0.004135     -0.004135     -0.003028
     -0.00736      0.00568     -0.01270        -0.008585      0.006627     -0.014822
      0.01241     -0.01241     -0.05710         0.014479     -0.014479     -0.066639
     -0.02477     -0.00988      0.02477        -0.028914     -0.011526      0.028914
      0.00838     -0.00035      0.00963         0.009785     -0.000412      0.011243
      0.01270      0.00568      0.00736         0.014822      0.006627      0.008585
      0.00035     -0.00838      0.00963         0.000412     -0.009785      0.011243
      0.01270      0.00736      0.00568         0.014822      0.008585      0.006627
     -0.02477      0.02477     -0.00988        -0.028914      0.028914     -0.011526
     -0.00735      0.00735     -0.01037        -0.008581      0.008581     -0.012106
     -0.00736     -0.01270      0.00568        -0.008585     -0.014822      0.006627
      0.05710     -0.01241     -0.01241         0.066639     -0.014479     -0.014479
      0.00259     -0.00354     -0.00354         0.003028     -0.004135     -0.004135
     -0.00963     -0.00035     -0.00838        -0.011243     -0.000412     -0.009785
     -0.00963     -0.00838     -0.00035        -0.011243     -0.009785     -0.000412
 -----------------------------------------------------------------------------------
 CHAIN + TOTAL  (eV/Angst)
 ----------------------------------------------
     -0.02559      0.01453      0.01453
     -0.00048      0.02638      0.02638
     -0.01453      0.01453      0.02559
     -0.01453      0.02559      0.01453
     -0.02638      0.00048      0.02638
     -0.02638      0.02638      0.00048
      0.01842     -0.01842     -0.01842
     -0.00856      0.00313      0.01113
     -0.00997     -0.00038      0.00997
     -0.02828      0.02828      0.02442
     -0.01591      0.01591      0.01591
     -0.01427      0.01427      0.01071
     -0.00997      0.00997     -0.00038
     -0.00313      0.00856      0.01113
      0.00038      0.00997      0.00997
     -0.02828      0.02442      0.02828
     -0.00313      0.01113      0.00856
     -0.00856      0.01113      0.00313
     -0.01427      0.01071      0.01427
     -0.01113      0.00856      0.00313
     -0.01113      0.00313      0.00856
     -0.02442      0.02828      0.02828
     -0.01071      0.01427      0.01427
     -0.00466      0.00565      0.00466
     -0.00924      0.00924      0.01564
     -0.02288      0.02288      0.02288
     -0.01564      0.00924      0.00924
     -0.00466      0.00466      0.00565
     -0.00924      0.01564      0.00924
     -0.00565      0.00466      0.00466
      0.00156     -0.00156     -0.00156
     -0.01469      0.01692      0.00536
     -0.01668      0.01020      0.02791
     -0.01469      0.00536      0.01692
     -0.01003      0.02752      0.01003
     -0.01403      0.02781      0.02781
     -0.00333      0.01636      0.00333
     -0.00535      0.01830      0.01830
     -0.02791      0.01020      0.01668
     -0.02781      0.01403      0.02781
     -0.01003      0.01003      0.02752
     -0.01692      0.01469      0.00536
     -0.00333      0.00333      0.01636
     -0.01830      0.00535      0.01830
     -0.02791      0.01668      0.01020
     -0.00536      0.01469      0.01692
     -0.01668      0.02791      0.01020
     -0.00536      0.01692      0.01469
     -0.01830      0.01830      0.00535
     -0.02781      0.02781      0.01403
     -0.01692      0.00536      0.01469
     -0.01636      0.00333      0.00333
     -0.02752      0.01003      0.01003
     -0.01020      0.01668      0.02791
     -0.01020      0.02791      0.01668
 ----------------------------------------------
 Quasi-Newton relaxation of ions (Broydens 2nd method)
  g(Force)  = 0.390E-02   g(Stress)= 0.000E+00

 retain information from N=  2 steps
 eigenvalues of (default step * inverse Hessian matrix)
  average eigenvalue of G=   7.2050
 eigenvalue spectrum of G is  7.2050  7.2050


--------------------------------------------------------------------------------------------------------


  
 reached required accuracy - stopping structural energy minimisation
     LOOP+:  cpu time  246.5780: real time  248.1006
    4ORBIT:  cpu time    0.0000: real time    0.0000
 


 total charge     
 
# of ion       s       p       d       tot
------------------------------------------
    1        0.387   0.362   0.000   0.749
    2        0.387   0.364   0.000   0.750
    3        0.385   0.361   0.000   0.746
    4        0.387   0.362   0.000   0.748
    5        0.387   0.363   0.000   0.750
    6        0.387   0.364   0.000   0.750
    7        0.394   0.350   0.000   0.744
    8        0.419   6.523   7.374  14.317
    9        0.420   6.524   7.396  14.340
   10        0.412   6.512   7.425  14.350
   11        0.413   6.512   7.429  14.354
   12        0.416   6.509   7.400  14.325
   13        0.420   6.523   7.397  14.340
   14        0.418   6.522   7.462  14.402
   15        0.419   6.523   7.461  14.402
   16        0.412   6.512   7.423  14.348
   17        0.418   6.522   7.473  14.414
   18        0.420   6.523   7.375  14.317
   19        0.415   6.509   7.399  14.324
   20        0.420   6.522   7.399  14.341
   21        0.419   6.523   7.410  14.352
   22        0.413   6.511   7.419  14.343
   23        0.414   6.508   7.451  14.374
   24        1.329   2.393   0.000   3.722
   25        1.327   2.387   0.000   3.714
   26        1.337   2.331   0.000   3.668
   27        1.327   2.381   0.000   3.708
   28        1.330   2.396   0.000   3.726
   29        1.327   2.386   0.000   3.713
   30        1.330   2.394   0.000   3.724
   31        1.360   2.295   0.000   3.655
   32        1.329   2.388   0.000   3.717
   33        1.326   2.389   0.000   3.715
   34        1.329   2.387   0.000   3.716
   35        1.329   2.379   0.000   3.708
   36        1.329   2.382   0.000   3.711
   37        1.360   2.295   0.000   3.654
   38        1.330   2.387   0.000   3.717
   39        1.327   2.384   0.000   3.711
   40        1.329   2.382   0.000   3.711
   41        1.328   2.380   0.000   3.708
   42        1.329   2.388   0.000   3.716
   43        1.360   2.296   0.000   3.655
   44        1.329   2.384   0.000   3.713
   45        1.327   2.383   0.000   3.709
   46        1.329   2.389   0.000   3.718
   47        1.327   2.388   0.000   3.715
   48        1.329   2.389   0.000   3.719
   49        1.329   2.384   0.000   3.713
   50        1.329   2.383   0.000   3.712
   51        1.328   2.387   0.000   3.715
   52        1.359   2.293   0.000   3.652
   53        1.330   2.375   0.000   3.704
   54        1.326   2.389   0.000   3.715
   55        1.327   2.389   0.000   3.716
--------------------------------------------------
tot         52.022 182.735 118.695 353.452
 


 magnetization (x)
 
# of ion       s       p       d       tot
------------------------------------------
    1       -0.000   0.000   0.000   0.000
    2       -0.000   0.000   0.000   0.000
    3        0.000   0.000   0.000   0.000
    4        0.000   0.000   0.000   0.000
    5        0.000   0.000   0.000   0.000
    6       -0.000   0.000   0.000  -0.000
    7        0.000   0.000   0.000   0.000
    8        0.000   0.000   0.001   0.002
    9        0.000   0.000  -0.001  -0.001
   10        0.000   0.000   0.003   0.003
   11        0.000   0.000   0.002   0.002
   12        0.000   0.000   0.000   0.000
   13        0.000   0.000   0.002   0.002
   14       -0.000   0.000   0.001   0.001
   15       -0.000   0.000   0.002   0.002
   16        0.000   0.000  -0.000  -0.000
   17        0.000   0.000   0.001   0.001
   18        0.000   0.000  -0.001  -0.001
   19        0.000   0.000   0.000   0.000
   20       -0.000   0.000   0.000   0.000
   21        0.000   0.000   0.002   0.002
   22        0.000   0.000   0.002   0.002
   23       -0.000   0.000   0.001   0.001
   24        0.000   0.000   0.000   0.000
   25        0.000  -0.000   0.000   0.000
   26        0.000  -0.000   0.000  -0.000
   27       -0.000  -0.000   0.000  -0.000
   28        0.000  -0.000   0.000  -0.000
   29        0.000   0.000   0.000   0.000
   30        0.000  -0.000   0.000  -0.000
   31       -0.000  -0.000   0.000  -0.000
   32        0.000   0.000   0.000   0.000
   33        0.000  -0.000   0.000   0.000
   34       -0.000  -0.000   0.000  -0.000
   35        0.000  -0.000   0.000   0.000
   36       -0.000  -0.000   0.000  -0.000
   37        0.000  -0.000   0.000  -0.000
   38       -0.000   0.000   0.000  -0.000
   39       -0.000  -0.000   0.000  -0.000
   40        0.000  -0.000   0.000   0.000
   41        0.000  -0.000   0.000   0.000
   42        0.000  -0.000   0.000   0.000
   43       -0.000  -0.000   0.000  -0.000
   44        0.000   0.000   0.000   0.000
   45       -0.000   0.000   0.000   0.000
   46        0.000  -0.000   0.000   0.000
   47        0.000  -0.000   0.000  -0.000
   48       -0.000   0.000   0.000   0.000
   49       -0.000  -0.000   0.000  -0.000
   50       -0.000  -0.000   0.000  -0.000
   51       -0.000  -0.000   0.000  -0.000
   52       -0.000  -0.000   0.000  -0.000
   53       -0.000  -0.000   0.000  -0.000
   54        0.000   0.000   0.000   0.000
   55       -0.000  -0.000   0.000  -0.000
--------------------------------------------------
tot          0.001  -0.001   0.015   0.015
 
 BZINTS: Fermi energy:  6.989274;453.000000 electrons
         Band energy:***********;  BLOECHL correction: -0.532252

 total amount of memory used by VASP MPI-rank0   154730. kBytes
=======================================================================

   base      :      30000. kBytes
   nonlr-proj:       5461. kBytes
   fftplans  :       9381. kBytes
   grid      :      24648. kBytes
   one-center:        155. kBytes
   wavefun   :      85085. kBytes
 
  
  
 General timing and accounting informations for this job:
 ========================================================
  
                  Total CPU time used (sec):     2723.212
                            User time (sec):     2721.352
                          System time (sec):        1.860
                         Elapsed time (sec):     2739.749
  
                   Maximum memory used (kb):      398824.
                   Average memory used (kb):           0.
  
                          Minor page faults:       600222
                          Major page faults:           53
                 Voluntary context switches:        27581
