  python dir          : /nfs/slac/g/suncatfs/sw/espv20/lib/python2.7/site-packages/espresso
  espresso dir        : /nfs/slac/g/suncatfs/sw/espv18/espresso-dynpy-beef/bin
  pseudo dir          : /nfs/slac/g/suncatfs/sw/external/esp-psp/v2
  ase-espresso py git : ffa2778-git



     Program PWSCF v.5.1rc2 (svn rev. 11289) starts on  4Mar2018 at 23:15:13 

     This program is part of the open-source Quantum ESPRESSO suite
     for quantum simulation of materials; please cite
         "P. Giannozzi et al., J. Phys.:Condens. Matter 21 395502 (2009);
          URL http://www.quantum-espresso.org", 
     in publications or presentations arising from this work. More details at
     http://www.quantum-espresso.org/quote

     Parallel version (MPI), running on     8 processors
     R & G space division:  proc/nbgrp/npool/nimage =       8
     Reading input from pw.inp
     Message from routine read_cards :
     DEPRECATED: no units specified in CELL_PARAMETERS card

     Current dimensions of program PWSCF are:
     Max number of different atomic species (ntypx) = 10
     Max number of k-points (npk) =  40000
     Max angular momentum in pseudopotentials (lmaxx) =  3
     Presently no symmetry can be used with electric field


     **************************************************************************
     Initializing libbeef V0.1.1 with the BEEF-vdW functional.
     Citation: Wellendorff et al., PRB 85, 235149 (2012).
     **************************************************************************


     IMPORTANT: XC functional enforced from input :
     Exchange-correlation      = BEEF ( 1  4 27 13 2)
     Any further DFT definition will be discarded
     Please, verify this is what you really want

               file Cu.UPF: wavefunction(s)  3D renormalized

     Subspace diagonalization in iterative solution of the eigenvalue problem:
     a serial algorithm will be used

 
     Parallelization info
     --------------------
     sticks:   dense  smooth     PW     G-vecs:    dense   smooth      PW
     Min         648     261     72               142416    36039    5292
     Max         649     262     73               142425    36072    5303
     Sum        5191    2091    583              1139367   288467   42387
 


     bravais-lattice index     =            0
     lattice parameter (alat)  =       1.8897  a.u.
     unit-cell volume          =    9578.9423 (a.u.)^3
     number of atoms/cell      =           41
     number of atomic types    =            5
     number of electrons       =       410.00
     number of Kohn-Sham states=          215
     kinetic-energy cutoff     =      36.7493  Ry
     charge density cutoff     =     367.4932  Ry
     convergence threshold     =      7.3E-06
     mixing beta               =       0.1000
     number of iterations used =           10  local-TF  mixing
     Exchange-correlation      = BEEF ( 1  4 27 13 2)
     nstep                     =           50


     celldm(1)=   1.889726  celldm(2)=   0.000000  celldm(3)=   0.000000
     celldm(4)=   0.000000  celldm(5)=   0.000000  celldm(6)=   0.000000

     crystal axes: (cart. coord. in units of alat)
               a(1) = (   7.806467   0.000000   0.000000 )  
               a(2) = (   0.000000   6.373953   0.000000 )  
               a(3) = (   0.000000   0.000000  28.527096 )  

     reciprocal axes: (cart. coord. in units 2 pi/alat)
               b(1) = (  0.128099  0.000000  0.000000 )  
               b(2) = (  0.000000  0.156889  0.000000 )  
               b(3) = (  0.000000  0.000000  0.035054 )  


     PseudoPot. # 1 for Zn read from file:
     /nfs/slac/g/suncatfs/sw/external/esp-psp/v2/Zn.UPF
     MD5 check sum: 8a117cd81793830d6ad9bd6443d05479
     Pseudo is Ultrasoft, Zval = 12.0
     Generated by new atomic code, or converted to UPF format
     Using radial grid of  869 points,  6 beta functions with: 
                l(1) =   0
                l(2) =   0
                l(3) =   1
                l(4) =   1
                l(5) =   2
                l(6) =   2
     Q(r) pseudized with  8 coefficients,  rinner =    0.800   0.800   0.800
                                                       0.800   0.800

     PseudoPot. # 2 for Cu read from file:
     /nfs/slac/g/suncatfs/sw/external/esp-psp/v2/Cu.UPF
     MD5 check sum: 1265fa589247fc99ea3a830f142ff47f
     Pseudo is Ultrasoft + core correction, Zval = 11.0
     Generated using "atomic" code by A. Dal Corso  v.5.0.2 svn rev. 9415
     Using radial grid of 1199 points,  6 beta functions with: 
                l(1) =   0
                l(2) =   0
                l(3) =   1
                l(4) =   1
                l(5) =   2
                l(6) =   2
     Q(r) pseudized with 0 coefficients 


     PseudoPot. # 3 for  O read from file:
     /nfs/slac/g/suncatfs/sw/external/esp-psp/v2/O.UPF
     MD5 check sum: e057bbcf3229fb5d8c36c0c92f9568b4
     Pseudo is Ultrasoft + core correction, Zval =  6.0
     Generated using "atomic" code by A. Dal Corso  v.5.0.2 svn rev. 9415
     Using radial grid of 1095 points,  4 beta functions with: 
                l(1) =   0
                l(2) =   0
                l(3) =   1
                l(4) =   1
     Q(r) pseudized with 0 coefficients 


     PseudoPot. # 4 for  C read from file:
     /nfs/slac/g/suncatfs/sw/external/esp-psp/v2/C.UPF
     MD5 check sum: ab446d787031eba755f1d5ee46644bb0
     Pseudo is Ultrasoft + core correction, Zval =  4.0
     Generated using "atomic" code by A. Dal Corso  v.5.0.2 svn rev. 9415
     Using radial grid of 1073 points,  4 beta functions with: 
                l(1) =   0
                l(2) =   0
                l(3) =   1
                l(4) =   1
     Q(r) pseudized with 0 coefficients 


     PseudoPot. # 5 for  H read from file:
     /nfs/slac/g/suncatfs/sw/external/esp-psp/v2/H.UPF
     MD5 check sum: bd57da0722753ddfd9833a65b40bb853
     Pseudo is Ultrasoft, Zval =  1.0
     Generated using "atomic" code by A. Dal Corso  v.5.0.2 svn rev. 9415
     Using radial grid of  929 points,  2 beta functions with: 
                l(1) =   0
                l(2) =   0
     Q(r) pseudized with 0 coefficients 


     vdW kernel table read from file vdW_kernel_table
     MD5 check sum: 095c7af220d748ca6e76c0b4c6cfb241

     atomic species   valence    mass     pseudopotential
        Zn1           12.00    65.39000     Zn( 1.00)
        Cu1           11.00    63.54600     Cu( 1.00)
        O1             6.00    15.99940      O( 1.00)
        C1             4.00    12.01100      C( 1.00)
        H1             1.00     1.00794      H( 1.00)

     No symmetry found



   Cartesian axes

     site n.     atom                  positions (alat units)
         1           Zn1 tau(   1) = (   0.5019116   1.1812403  17.9022271  )
         2           Cu1 tau(   2) = (   3.3651253   1.0911389  17.7418840  )
         3           Cu1 tau(   3) = (   5.8506898   1.0548518  17.7033811  )
         4           Cu1 tau(   4) = (   1.9586057   5.3266971  17.0096346  )
         5           Cu1 tau(   5) = (   4.5696017   5.3400786  16.9682801  )
         6           Cu1 tau(   6) = (   7.1595775   5.3388488  16.9709604  )
         7           Cu1 tau(   7) = (   0.6580780   3.2628405  16.2696499  )
         8           Cu1 tau(   8) = (   3.2654418   3.2455507  16.2878361  )
         9           Cu1 tau(   9) = (   5.8542677   3.2431048  16.3076490  )
        10           Cu1 tau(  10) = (   1.9506258   1.1410818  15.5453773  )
        11           Cu1 tau(  11) = (   4.5509167   1.1348377  15.5360815  )
        12           Cu1 tau(  12) = (   7.1854115   1.1461876  15.5387327  )
        13           Cu1 tau(  13) = (   0.6628782   5.3671467  14.7703896  )
        14           Cu1 tau(  14) = (   3.2510457   5.3590533  14.7727871  )
        15           Cu1 tau(  15) = (   5.8631376   5.3601876  14.7599035  )
        16           Cu1 tau(  16) = (   1.9574972   3.2270219  14.0166441  )
        17           Cu1 tau(  17) = (   4.5594387   3.2287389  14.0209493  )
        18           Cu1 tau(  18) = (   7.1524236   3.2301602  14.0170063  )
        19           Cu1 tau(  19) = (   0.6505353   1.0963948  13.2895739  )
        20           Cu1 tau(  20) = (   3.2526883   1.0963948  13.2895739  )
        21           Cu1 tau(  21) = (   5.8548490   1.0963948  13.2895739  )
        22           Cu1 tau(  22) = (   1.9516079   5.3456991  12.5384024  )
        23           Cu1 tau(  23) = (   4.5537687   5.3456991  12.5384024  )
        24           Cu1 tau(  24) = (   7.1559216   5.3456991  12.5384024  )
        25           Cu1 tau(  25) = (   0.6505353   3.2210437  11.7872121  )
        26           Cu1 tau(  26) = (   3.2526883   3.2210437  11.7872121  )
        27           Cu1 tau(  27) = (   5.8548490   3.2210437  11.7872121  )
        28           Cu1 tau(  28) = (   1.9516079   1.0963948  11.0360406  )
        29           Cu1 tau(  29) = (   4.5537687   1.0963948  11.0360406  )
        30           Cu1 tau(  30) = (   7.1559216   1.0963948  11.0360406  )
        31           Cu1 tau(  31) = (   0.6505353   5.3456991  10.2848690  )
        32           Cu1 tau(  32) = (   3.2526883   5.3456991  10.2848690  )
        33           Cu1 tau(  33) = (   5.8548490   5.3456991  10.2848690  )
        34           Cu1 tau(  34) = (   1.9516079   3.2210437   9.5336788  )
        35           Cu1 tau(  35) = (   4.5537687   3.2210437   9.5336788  )
        36           Cu1 tau(  36) = (   7.1559216   3.2210437   9.5336788  )
        37           O1  tau(  37) = (   1.9798229   0.9979163  18.9767770  )
        38           C1  tau(  38) = (   3.5840916   1.0834014  20.2560631  )
        39           H1  tau(  39) = (   3.5797075   2.0370066  20.7804182  )
        40           H1  tau(  40) = (   2.6937085   0.5195402  20.5448257  )
        41           H1  tau(  41) = (   4.4516643   0.5122124  20.5772549  )

     number of k points=    10  Marzari-Vanderbilt smearing, width (Ry)=  0.0073
                       cart. coord. in units 2pi/alat
        k(    1) = (   0.0000000   0.0000000   0.0000000), wk =   0.1250000
        k(    2) = (   0.0000000   0.0392221   0.0000000), wk =   0.2500000
        k(    3) = (   0.0000000  -0.0784443   0.0000000), wk =   0.1250000
        k(    4) = (   0.0320247   0.0000000   0.0000000), wk =   0.2500000
        k(    5) = (   0.0320247   0.0392221   0.0000000), wk =   0.2500000
        k(    6) = (   0.0320247  -0.0784443   0.0000000), wk =   0.2500000
        k(    7) = (   0.0320247  -0.0392221   0.0000000), wk =   0.2500000
        k(    8) = (  -0.0640495   0.0000000   0.0000000), wk =   0.1250000
        k(    9) = (  -0.0640495   0.0392221   0.0000000), wk =   0.2500000
        k(   10) = (  -0.0640495  -0.0784443   0.0000000), wk =   0.1250000

     Dense  grid:  1139367 G-vectors     FFT dimensions: (  96,  75, 360)

     Smooth grid:   288467 G-vectors     FFT dimensions: (  60,  48, 216)

     Largest allocated arrays     est. size (Mb)     dimensions
        Kohn-Sham Wavefunctions        14.97 Mb     (    4562,  215)
        NL pseudopotentials            46.64 Mb     (    4562,  670)
        Each V/rho on FFT grid          4.94 Mb     (  324000)
        Each G-vector array             1.09 Mb     (  142423)
        G-vector shells                 0.43 Mb     (   56912)
     Largest temporary arrays     est. size (Mb)     dimensions
        Auxiliary wavefunctions        59.87 Mb     (    4562,  860)
        Each subspace H/S matrix       11.29 Mb     (     860,  860)
        Each <psi_i|beta_j> matrix      2.20 Mb     (     670,  215)
        Arrays for rho mixing          49.44 Mb     (  324000,   10)

     Check: negative/imaginary core charge=   -0.000012    0.000000

     Initial potential from superposition of free atoms
     Check: negative starting charge=   -0.003033

     starting charge  409.99168, renormalised to  410.00000

     negative rho (up, down):  3.033E-03 0.000E+00


     ************************************************************************
     *
     * You are using vdW-DF for exchange-correlation in this calculation.
     * Please cite the following three references that made this development
     * possible:
     *
     *   M. Dion, H. Rydberg, E. Schroder, D. C. Langreth, and
     *   B. I. Lundqvist, Phys. Rev. Lett. 92, 246401 (2004).
     *
     *   T. Thonhauser, V. R. Cooper, S. Li, A. Puzder, P. Hyldgaard, and
     *   D. C. Langreth, Phys. Rev. B 76, 125112 (2007).
     *
     *   G. Roman-Perez and J. M. Soler, Phys. Rev. Lett. 103, 096102 (2009).
     *
     *
     * If you are using vdW-DF2, please also cite:
     *
     *   K. Lee, E. D. Murray, L. Kong, B. I. Lundqvist, and
     *   D. C. Langreth, Phys. Rev. B 82, 081101(R) (2010).
     *
     *
     * If you are calculating the stress with vdW-DF, please also cite:
     *
     *   R. Sabatini, E. Kucukbenli, B. Kolb, T. Thonhauser, and
     *   S. de Gironcoli, J. Phys.: Condens. Matter 24, 424209 (2012).
     *
     ************************************************************************

     Carrying out vdW-DF run using the following parameters:

     Nqs =      20    Nr_points =    1024   r_max =   100.000
     q_mesh =
               0.00001000     0.04494208     0.09755937     0.15916263
               0.23128650     0.31572767     0.41458969     0.53033537
               0.66584808     0.82450364     1.01025438     1.22772762
               1.48234092     1.78043706     2.12944203     2.53805004
               3.01644009     3.57652955     4.23227104     5.00000000

     Gradients computed in reciprocal space

     ************************************************************************


 
     Adding external electric field

     Computed dipole along edir(3) : 
        Dipole               -0.0029 Ry au,         -0.0075 Debye
        Dipole field         -0.0000 Ry au
 
        Potential amp.        0.0004 Ry
        Total length         52.5607 bohr
 
     Starting wfc are  332 randomized atomic wfcs

     total cpu time spent up to now is       97.8 secs

     per-process dynamical memory:   353.7 Mb

     Self-consistent Calculation

     iteration #  1     ecut=    36.75 Ry     beta=0.10
     Davidson diagonalization with overlap
     ethr =  1.00E-02,  avg # of iterations =  3.0

     Threshold (ethr) on eigenvalues was too large:
     Diagonalizing with lowered threshold

     Davidson diagonalization with overlap
     ethr =  9.55E-04,  avg # of iterations =  2.3

     negative rho (up, down):  1.540E-03 0.000E+00
 
     Adding external electric field

     Computed dipole along edir(3) : 
        Dipole               -0.0166 Ry au,         -0.0422 Debye
        Dipole field         -0.0000 Ry au
 
        Potential amp.        0.0023 Ry
        Total length         52.5607 bohr
 

     total cpu time spent up to now is      395.8 secs

     total energy              =   -4330.31713987 Ry
     Harris-Foulkes estimate   =   -4330.45980562 Ry
     estimated scf accuracy    <       3.95013281 Ry

     iteration #  2     ecut=    36.75 Ry     beta=0.10
     Davidson diagonalization with overlap
     ethr =  9.63E-04,  avg # of iterations =  1.0

     negative rho (up, down):  2.626E-04 0.000E+00
 
     Adding external electric field

     Computed dipole along edir(3) : 
        Dipole               -0.1599 Ry au,         -0.4064 Debye
        Dipole field         -0.0002 Ry au
 
        Potential amp.        0.0220 Ry
        Total length         52.5607 bohr
 

     total cpu time spent up to now is      552.5 secs

     total energy              =   -4329.27829491 Ry
     Harris-Foulkes estimate   =   -4330.35218406 Ry
     estimated scf accuracy    <       3.42598771 Ry

     iteration #  3     ecut=    36.75 Ry     beta=0.10
     Davidson diagonalization with overlap
     ethr =  8.36E-04,  avg # of iterations =  7.4

     negative rho (up, down):  2.488E-04 0.000E+00
 
     Adding external electric field

     Computed dipole along edir(3) : 
        Dipole               -0.1176 Ry au,         -0.2989 Debye
        Dipole field         -0.0002 Ry au
 
        Potential amp.        0.0162 Ry
        Total length         52.5607 bohr
 

     total cpu time spent up to now is      750.3 secs

     total energy              =   -4329.90315772 Ry
     Harris-Foulkes estimate   =   -4330.32321204 Ry
     estimated scf accuracy    <       8.60746165 Ry

     iteration #  4     ecut=    36.75 Ry     beta=0.10
     Davidson diagonalization with overlap
     ethr =  8.36E-04,  avg # of iterations =  2.1

     negative rho (up, down):  2.164E-04 0.000E+00
 
     Adding external electric field

     Computed dipole along edir(3) : 
        Dipole               -0.1143 Ry au,         -0.2906 Debye
        Dipole field         -0.0001 Ry au
 
        Potential amp.        0.0158 Ry
        Total length         52.5607 bohr
 

     total cpu time spent up to now is      914.6 secs

     total energy              =   -4330.00084584 Ry
     Harris-Foulkes estimate   =   -4330.04382017 Ry
     estimated scf accuracy    <       2.04754090 Ry

     iteration #  5     ecut=    36.75 Ry     beta=0.10
     Davidson diagonalization with overlap
     ethr =  4.99E-04,  avg # of iterations =  2.0

     negative rho (up, down):  1.213E-04 0.000E+00
 
     Adding external electric field

     Computed dipole along edir(3) : 
        Dipole               -0.1389 Ry au,         -0.3531 Debye
        Dipole field         -0.0002 Ry au
 
        Potential amp.        0.0192 Ry
        Total length         52.5607 bohr
 

     total cpu time spent up to now is     1075.0 secs

     total energy              =   -4329.90898890 Ry
     Harris-Foulkes estimate   =   -4330.01497571 Ry
     estimated scf accuracy    <       1.61863162 Ry

     iteration #  6     ecut=    36.75 Ry     beta=0.10
     Davidson diagonalization with overlap
     ethr =  3.95E-04,  avg # of iterations =  4.1

     negative rho (up, down):  1.906E-04 0.000E+00
 
     Adding external electric field

     Computed dipole along edir(3) : 
        Dipole               -0.2941 Ry au,         -0.7476 Debye
        Dipole field         -0.0004 Ry au
 
        Potential amp.        0.0406 Ry
        Total length         52.5607 bohr
 

     total cpu time spent up to now is     1251.1 secs

     total energy              =   -4329.90838609 Ry
     Harris-Foulkes estimate   =   -4329.95801168 Ry
     estimated scf accuracy    <       0.74750810 Ry

     iteration #  7     ecut=    36.75 Ry     beta=0.10
     Davidson diagonalization with overlap
     ethr =  1.82E-04,  avg # of iterations =  6.2

     negative rho (up, down):  1.983E-04 0.000E+00
 
     Adding external electric field

     Computed dipole along edir(3) : 
        Dipole               -0.2605 Ry au,         -0.6622 Debye
        Dipole field         -0.0003 Ry au
 
        Potential amp.        0.0359 Ry
        Total length         52.5607 bohr
 

     total cpu time spent up to now is     1451.3 secs

     total energy              =   -4329.79537035 Ry
     Harris-Foulkes estimate   =   -4330.07619502 Ry
     estimated scf accuracy    <       4.07454081 Ry

     iteration #  8     ecut=    36.75 Ry     beta=0.10
     Davidson diagonalization with overlap
     ethr =  1.82E-04,  avg # of iterations =  6.1

     negative rho (up, down):  1.025E-04 0.000E+00
 
     Adding external electric field

     Computed dipole along edir(3) : 
        Dipole               -0.2682 Ry au,         -0.6816 Debye
        Dipole field         -0.0004 Ry au
 
        Potential amp.        0.0370 Ry
        Total length         52.5607 bohr
 

     total cpu time spent up to now is     1644.3 secs

     total energy              =   -4329.92807661 Ry
     Harris-Foulkes estimate   =   -4329.95236964 Ry
     estimated scf accuracy    <       0.29479663 Ry

     iteration #  9     ecut=    36.75 Ry     beta=0.10
     Davidson diagonalization with overlap
     ethr =  7.19E-05,  avg # of iterations =  1.4

     negative rho (up, down):  2.010E-05 0.000E+00
 
     Adding external electric field

     Computed dipole along edir(3) : 
        Dipole               -0.2885 Ry au,         -0.7332 Debye
        Dipole field         -0.0004 Ry au
 
        Potential amp.        0.0398 Ry
        Total length         52.5607 bohr
 

     total cpu time spent up to now is     1813.4 secs

     total energy              =   -4329.90133714 Ry
     Harris-Foulkes estimate   =   -4329.93315522 Ry
     estimated scf accuracy    <       0.18766981 Ry

     iteration # 10     ecut=    36.75 Ry     beta=0.10
     Davidson diagonalization with overlap
     ethr =  4.58E-05,  avg # of iterations =  4.0

     negative rho (up, down):  1.069E-05 0.000E+00
 
     Adding external electric field

     Computed dipole along edir(3) : 
        Dipole               -0.3177 Ry au,         -0.8076 Debye
        Dipole field         -0.0004 Ry au
 
        Potential amp.        0.0438 Ry
        Total length         52.5607 bohr
 

     total cpu time spent up to now is     2001.6 secs

     total energy              =   -4329.91952487 Ry
     Harris-Foulkes estimate   =   -4329.92192616 Ry
     estimated scf accuracy    <       0.27529071 Ry

     iteration # 11     ecut=    36.75 Ry     beta=0.10
     Davidson diagonalization with overlap
     ethr =  4.58E-05,  avg # of iterations =  1.0

     negative rho (up, down):  6.722E-06 0.000E+00
 
     Adding external electric field

     Computed dipole along edir(3) : 
        Dipole               -0.4047 Ry au,         -1.0285 Debye
        Dipole field         -0.0005 Ry au
 
        Potential amp.        0.0558 Ry
        Total length         52.5607 bohr
 

     total cpu time spent up to now is     2179.2 secs

     total energy              =   -4329.91720132 Ry
     Harris-Foulkes estimate   =   -4329.92043980 Ry
     estimated scf accuracy    <       0.26263028 Ry

     iteration # 12     ecut=    36.75 Ry     beta=0.10
     Davidson diagonalization with overlap
     ethr =  4.58E-05,  avg # of iterations =  3.0

     negative rho (up, down):  7.847E-06 0.000E+00
 
     Adding external electric field

     Computed dipole along edir(3) : 
        Dipole               -0.4194 Ry au,         -1.0660 Debye
        Dipole field         -0.0006 Ry au
 
        Potential amp.        0.0578 Ry
        Total length         52.5607 bohr
 

     total cpu time spent up to now is     2367.1 secs

     total energy              =   -4329.90248486 Ry
     Harris-Foulkes estimate   =   -4329.92154165 Ry
     estimated scf accuracy    <       0.23883459 Ry

     iteration # 13     ecut=    36.75 Ry     beta=0.10
     Davidson diagonalization with overlap
     ethr =  4.58E-05,  avg # of iterations =  3.1

     negative rho (up, down):  7.547E-06 0.000E+00
 
     Adding external electric field

     Computed dipole along edir(3) : 
        Dipole               -0.4122 Ry au,         -1.0477 Debye
        Dipole field         -0.0005 Ry au
 
        Potential amp.        0.0568 Ry
        Total length         52.5607 bohr
 

     total cpu time spent up to now is     2560.2 secs

     total energy              =   -4329.90833972 Ry
     Harris-Foulkes estimate   =   -4329.90974319 Ry
     estimated scf accuracy    <       0.04569779 Ry

     iteration # 14     ecut=    36.75 Ry     beta=0.10
     Davidson diagonalization with overlap
     ethr =  1.11E-05,  avg # of iterations =  5.7

     negative rho (up, down):  3.567E-06 0.000E+00
 
     Adding external electric field

     Computed dipole along edir(3) : 
        Dipole               -0.4922 Ry au,         -1.2511 Debye
        Dipole field         -0.0006 Ry au
 
        Potential amp.        0.0679 Ry
        Total length         52.5607 bohr
 

     total cpu time spent up to now is     2773.0 secs

     total energy              =   -4329.89798977 Ry
     Harris-Foulkes estimate   =   -4329.91345392 Ry
     estimated scf accuracy    <       0.04606118 Ry

     iteration # 15     ecut=    36.75 Ry     beta=0.10
     Davidson diagonalization with overlap
     ethr =  1.11E-05,  avg # of iterations =  6.2

     negative rho (up, down):  3.617E-06 0.000E+00
 
     Adding external electric field

     Computed dipole along edir(3) : 
        Dipole               -0.5110 Ry au,         -1.2988 Debye
        Dipole field         -0.0007 Ry au
 
        Potential amp.        0.0705 Ry
        Total length         52.5607 bohr
 

     total cpu time spent up to now is     2990.6 secs

     total energy              =   -4329.90439458 Ry
     Harris-Foulkes estimate   =   -4329.91445994 Ry
     estimated scf accuracy    <       0.13035944 Ry

     iteration # 16     ecut=    36.75 Ry     beta=0.10
     Davidson diagonalization with overlap
     ethr =  1.11E-05,  avg # of iterations =  3.2

     negative rho (up, down):  2.447E-06 0.000E+00
 
     Adding external electric field

     Computed dipole along edir(3) : 
        Dipole               -0.5314 Ry au,         -1.3506 Debye
        Dipole field         -0.0007 Ry au
 
        Potential amp.        0.0733 Ry
        Total length         52.5607 bohr
 

     total cpu time spent up to now is     3182.5 secs

     total energy              =   -4329.90651964 Ry
     Harris-Foulkes estimate   =   -4329.90822382 Ry
     estimated scf accuracy    <       0.02581356 Ry

     iteration # 17     ecut=    36.75 Ry     beta=0.10
     Davidson diagonalization with overlap
     ethr =  6.30E-06,  avg # of iterations =  5.0

     negative rho (up, down):  1.749E-05 0.000E+00
 
     Adding external electric field

     Computed dipole along edir(3) : 
        Dipole               -0.5354 Ry au,         -1.3609 Debye
        Dipole field         -0.0007 Ry au
 
        Potential amp.        0.0738 Ry
        Total length         52.5607 bohr
 

     total cpu time spent up to now is     3382.3 secs

     total energy              =   -4329.90673784 Ry
     Harris-Foulkes estimate   =   -4329.90784771 Ry
     estimated scf accuracy    <       0.01555066 Ry

     iteration # 18     ecut=    36.75 Ry     beta=0.10
     Davidson diagonalization with overlap
     ethr =  3.79E-06,  avg # of iterations =  3.2

     negative rho (up, down):  1.026E-04 0.000E+00
 
     Adding external electric field

     Computed dipole along edir(3) : 
        Dipole               -0.5314 Ry au,         -1.3506 Debye
        Dipole field         -0.0007 Ry au
 
        Potential amp.        0.0733 Ry
        Total length         52.5607 bohr
 

     total cpu time spent up to now is     3574.1 secs

     total energy              =   -4329.90565192 Ry
     Harris-Foulkes estimate   =   -4329.90720022 Ry
     estimated scf accuracy    <       0.01334527 Ry

     iteration # 19     ecut=    36.75 Ry     beta=0.10
     Davidson diagonalization with overlap
     ethr =  3.25E-06,  avg # of iterations =  2.6

     negative rho (up, down):  1.744E-04 0.000E+00
 
     Adding external electric field

     Computed dipole along edir(3) : 
        Dipole               -0.5321 Ry au,         -1.3525 Debye
        Dipole field         -0.0007 Ry au
 
        Potential amp.        0.0734 Ry
        Total length         52.5607 bohr
 

     total cpu time spent up to now is     3761.3 secs

     total energy              =   -4329.90620635 Ry
     Harris-Foulkes estimate   =   -4329.90632493 Ry
     estimated scf accuracy    <       0.01048427 Ry

     iteration # 20     ecut=    36.75 Ry     beta=0.10
     Davidson diagonalization with overlap
     ethr =  2.56E-06,  avg # of iterations =  1.0

     negative rho (up, down):  4.030E-05 0.000E+00
 
     Adding external electric field

     Computed dipole along edir(3) : 
        Dipole               -0.5160 Ry au,         -1.3114 Debye
        Dipole field         -0.0007 Ry au
 
        Potential amp.        0.0712 Ry
        Total length         52.5607 bohr
 

     total cpu time spent up to now is     3943.7 secs

     total energy              =   -4329.90620242 Ry
     Harris-Foulkes estimate   =   -4329.90635900 Ry
     estimated scf accuracy    <       0.00790124 Ry

     iteration # 21     ecut=    36.75 Ry     beta=0.10
     Davidson diagonalization with overlap
     ethr =  1.93E-06,  avg # of iterations =  1.0

     negative rho (up, down):  2.311E-06 0.000E+00
 
     Adding external electric field

     Computed dipole along edir(3) : 
        Dipole               -0.4749 Ry au,         -1.2071 Debye
        Dipole field         -0.0006 Ry au
 
        Potential amp.        0.0655 Ry
        Total length         52.5607 bohr
 

     total cpu time spent up to now is     4123.8 secs

     total energy              =   -4329.90600808 Ry
     Harris-Foulkes estimate   =   -4329.90634352 Ry
     estimated scf accuracy    <       0.00899699 Ry

     iteration # 22     ecut=    36.75 Ry     beta=0.10
     Davidson diagonalization with overlap
     ethr =  1.93E-06,  avg # of iterations =  3.4

     negative rho (up, down):  1.242E-06 0.000E+00
 
     Adding external electric field

     Computed dipole along edir(3) : 
        Dipole               -0.4866 Ry au,         -1.2369 Debye
        Dipole field         -0.0006 Ry au
 
        Potential amp.        0.0671 Ry
        Total length         52.5607 bohr
 

     total cpu time spent up to now is     4317.3 secs

     total energy              =   -4329.90676136 Ry
     Harris-Foulkes estimate   =   -4329.90648965 Ry
     estimated scf accuracy    <       0.01666431 Ry

     iteration # 23     ecut=    36.75 Ry     beta=0.10
     Davidson diagonalization with overlap
     ethr =  1.93E-06,  avg # of iterations =  1.2

     negative rho (up, down):  4.613E-06 0.000E+00
 
     Adding external electric field

     Computed dipole along edir(3) : 
        Dipole               -0.4869 Ry au,         -1.2375 Debye
        Dipole field         -0.0006 Ry au
 
        Potential amp.        0.0671 Ry
        Total length         52.5607 bohr
 

     total cpu time spent up to now is     4498.3 secs

     total energy              =   -4329.90622092 Ry
     Harris-Foulkes estimate   =   -4329.90687830 Ry
     estimated scf accuracy    <       0.02392384 Ry

     iteration # 24     ecut=    36.75 Ry     beta=0.10
     Davidson diagonalization with overlap
     ethr =  1.93E-06,  avg # of iterations =  1.2

     negative rho (up, down):  1.266E-05 0.000E+00
 
     Adding external electric field

     Computed dipole along edir(3) : 
        Dipole               -0.5109 Ry au,         -1.2987 Debye
        Dipole field         -0.0007 Ry au
 
        Potential amp.        0.0705 Ry
        Total length         52.5607 bohr
 

     total cpu time spent up to now is     4680.8 secs

     total energy              =   -4329.90623839 Ry
     Harris-Foulkes estimate   =   -4329.90632235 Ry
     estimated scf accuracy    <       0.01447852 Ry

     iteration # 25     ecut=    36.75 Ry     beta=0.10
     Davidson diagonalization with overlap
     ethr =  1.93E-06,  avg # of iterations =  1.0

     negative rho (up, down):  1.247E-05 0.000E+00
 
     Adding external electric field

     Computed dipole along edir(3) : 
        Dipole               -0.4727 Ry au,         -1.2015 Debye
        Dipole field         -0.0006 Ry au
 
        Potential amp.        0.0652 Ry
        Total length         52.5607 bohr
 

     total cpu time spent up to now is     4859.2 secs

     total energy              =   -4329.90599502 Ry
     Harris-Foulkes estimate   =   -4329.90633132 Ry
     estimated scf accuracy    <       0.01200504 Ry

     iteration # 26     ecut=    36.75 Ry     beta=0.10
     Davidson diagonalization with overlap
     ethr =  1.93E-06,  avg # of iterations =  1.0

     negative rho (up, down):  1.955E-05 0.000E+00
 
     Adding external electric field

     Computed dipole along edir(3) : 
        Dipole               -0.4191 Ry au,         -1.0652 Debye
        Dipole field         -0.0005 Ry au
 
        Potential amp.        0.0578 Ry
        Total length         52.5607 bohr
 

     total cpu time spent up to now is     5032.6 secs

     total energy              =   -4329.90580037 Ry
     Harris-Foulkes estimate   =   -4329.90609912 Ry
     estimated scf accuracy    <       0.01027985 Ry

     iteration # 27     ecut=    36.75 Ry     beta=0.10
     Davidson diagonalization with overlap
     ethr =  1.93E-06,  avg # of iterations =  1.8

     negative rho (up, down):  2.133E-04 0.000E+00
 
     Adding external electric field

     Computed dipole along edir(3) : 
        Dipole               -0.1832 Ry au,         -0.4657 Debye
        Dipole field         -0.0002 Ry au
 
        Potential amp.        0.0253 Ry
        Total length         52.5607 bohr
 

     total cpu time spent up to now is     5209.8 secs

     total energy              =   -4329.90451018 Ry
     Harris-Foulkes estimate   =   -4329.90602154 Ry
     estimated scf accuracy    <       0.00958684 Ry

     iteration # 28     ecut=    36.75 Ry     beta=0.10
     Davidson diagonalization with overlap
     ethr =  1.93E-06,  avg # of iterations =  2.4

     negative rho (up, down):  2.578E-04 0.000E+00
 
     Adding external electric field

     Computed dipole along edir(3) : 
        Dipole               -0.1210 Ry au,         -0.3076 Debye
        Dipole field         -0.0002 Ry au
 
        Potential amp.        0.0167 Ry
        Total length         52.5607 bohr
 

     total cpu time spent up to now is     5392.2 secs

     total energy              =   -4329.90457638 Ry
     Harris-Foulkes estimate   =   -4329.90510708 Ry
     estimated scf accuracy    <       0.00526427 Ry

     iteration # 29     ecut=    36.75 Ry     beta=0.10
     Davidson diagonalization with overlap
     ethr =  1.28E-06,  avg # of iterations =  1.4

     negative rho (up, down):  2.167E-03 0.000E+00
 
     Adding external electric field

     Computed dipole along edir(3) : 
        Dipole                0.0741 Ry au,          0.1882 Debye
        Dipole field          0.0001 Ry au
 
        Potential amp.       -0.0102 Ry
        Total length         52.5607 bohr
 

     total cpu time spent up to now is     5570.5 secs

     total energy              =   -4329.90388598 Ry
     Harris-Foulkes estimate   =   -4329.90474841 Ry
     estimated scf accuracy    <       0.00370330 Ry

     iteration # 30     ecut=    36.75 Ry     beta=0.10
     Davidson diagonalization with overlap
     ethr =  9.03E-07,  avg # of iterations =  5.9

     negative rho (up, down):  6.736E-03 0.000E+00
 
     Adding external electric field

     Computed dipole along edir(3) : 
        Dipole                0.1487 Ry au,          0.3779 Debye
        Dipole field          0.0002 Ry au
 
        Potential amp.       -0.0205 Ry
        Total length         52.5607 bohr
 

     total cpu time spent up to now is     5779.4 secs

     total energy              =   -4329.90388762 Ry
     Harris-Foulkes estimate   =   -4329.90468029 Ry
     estimated scf accuracy    <       0.00843582 Ry

     iteration # 31     ecut=    36.75 Ry     beta=0.10
     Davidson diagonalization with overlap
     ethr =  9.03E-07,  avg # of iterations =  2.0

     negative rho (up, down):  7.656E-03 0.000E+00
 
     Adding external electric field

     Computed dipole along edir(3) : 
        Dipole                0.1895 Ry au,          0.4818 Debye
        Dipole field          0.0002 Ry au
 
        Potential amp.       -0.0261 Ry
        Total length         52.5607 bohr
 

     total cpu time spent up to now is     5959.8 secs

     total energy              =   -4329.90344358 Ry
     Harris-Foulkes estimate   =   -4329.90399552 Ry
     estimated scf accuracy    <       0.00378245 Ry

     iteration # 32     ecut=    36.75 Ry     beta=0.10
     Davidson diagonalization with overlap
     ethr =  9.03E-07,  avg # of iterations =  3.8

     negative rho (up, down):  6.141E-03 0.000E+00
 
     Adding external electric field

     Computed dipole along edir(3) : 
        Dipole                0.1550 Ry au,          0.3940 Debye
        Dipole field          0.0002 Ry au
 
        Potential amp.       -0.0214 Ry
        Total length         52.5607 bohr
 

     total cpu time spent up to now is     6148.6 secs

     total energy              =   -4329.90353706 Ry
     Harris-Foulkes estimate   =   -4329.90371844 Ry
     estimated scf accuracy    <       0.00159909 Ry

     iteration # 33     ecut=    36.75 Ry     beta=0.10
     Davidson diagonalization with overlap
     ethr =  3.90E-07,  avg # of iterations =  2.4

     negative rho (up, down):  3.863E-03 0.000E+00
 
     Adding external electric field

     Computed dipole along edir(3) : 
        Dipole                0.0745 Ry au,          0.1895 Debye
        Dipole field          0.0001 Ry au
 
        Potential amp.       -0.0103 Ry
        Total length         52.5607 bohr
 

     total cpu time spent up to now is     6329.8 secs

     total energy              =   -4329.90342649 Ry
     Harris-Foulkes estimate   =   -4329.90361053 Ry
     estimated scf accuracy    <       0.00095096 Ry

     iteration # 34     ecut=    36.75 Ry     beta=0.10
     Davidson diagonalization with overlap
     ethr =  2.32E-07,  avg # of iterations =  3.5

     negative rho (up, down):  3.302E-03 0.000E+00
 
     Adding external electric field

     Computed dipole along edir(3) : 
        Dipole                0.0574 Ry au,          0.1459 Debye
        Dipole field          0.0001 Ry au
 
        Potential amp.       -0.0079 Ry
        Total length         52.5607 bohr
 

     total cpu time spent up to now is     6517.4 secs

     total energy              =   -4329.90344682 Ry
     Harris-Foulkes estimate   =   -4329.90350448 Ry
     estimated scf accuracy    <       0.00052463 Ry

     iteration # 35     ecut=    36.75 Ry     beta=0.10
     Davidson diagonalization with overlap
     ethr =  1.28E-07,  avg # of iterations =  3.1

     negative rho (up, down):  3.989E-03 0.000E+00
 
     Adding external electric field

     Computed dipole along edir(3) : 
        Dipole                0.0586 Ry au,          0.1490 Debye
        Dipole field          0.0001 Ry au
 
        Potential amp.       -0.0081 Ry
        Total length         52.5607 bohr
 

     total cpu time spent up to now is     6707.0 secs

     total energy              =   -4329.90339794 Ry
     Harris-Foulkes estimate   =   -4329.90347818 Ry
     estimated scf accuracy    <       0.00049901 Ry

     iteration # 36     ecut=    36.75 Ry     beta=0.10
     Davidson diagonalization with overlap
     ethr =  1.22E-07,  avg # of iterations =  2.0

     negative rho (up, down):  5.114E-03 0.000E+00
 
     Adding external electric field

     Computed dipole along edir(3) : 
        Dipole                0.0694 Ry au,          0.1763 Debye
        Dipole field          0.0001 Ry au
 
        Potential amp.       -0.0096 Ry
        Total length         52.5607 bohr
 

     total cpu time spent up to now is     6894.0 secs

     total energy              =   -4329.90334676 Ry
     Harris-Foulkes estimate   =   -4329.90341609 Ry
     estimated scf accuracy    <       0.00027250 Ry

     iteration # 37     ecut=    36.75 Ry     beta=0.10
     Davidson diagonalization with overlap
     ethr =  6.65E-08,  avg # of iterations =  5.0

     negative rho (up, down):  4.603E-03 0.000E+00
 
     Adding external electric field

     Computed dipole along edir(3) : 
        Dipole                0.0732 Ry au,          0.1860 Debye
        Dipole field          0.0001 Ry au
 
        Potential amp.       -0.0101 Ry
        Total length         52.5607 bohr
 

     total cpu time spent up to now is     7107.0 secs

     total energy              =   -4329.90336907 Ry
     Harris-Foulkes estimate   =   -4329.90341404 Ry
     estimated scf accuracy    <       0.00026644 Ry

     iteration # 38     ecut=    36.75 Ry     beta=0.10
     Davidson diagonalization with overlap
     ethr =  6.50E-08,  avg # of iterations =  3.1

     negative rho (up, down):  4.162E-03 0.000E+00
 
     Adding external electric field

     Computed dipole along edir(3) : 
        Dipole                0.0597 Ry au,          0.1518 Debye
        Dipole field          0.0001 Ry au
 
        Potential amp.       -0.0082 Ry
        Total length         52.5607 bohr
 

     total cpu time spent up to now is     7303.6 secs

     total energy              =   -4329.90337494 Ry
     Harris-Foulkes estimate   =   -4329.90338982 Ry
     estimated scf accuracy    <       0.00010433 Ry

     iteration # 39     ecut=    36.75 Ry     beta=0.10
     Davidson diagonalization with overlap
     ethr =  2.54E-08,  avg # of iterations =  3.1

     negative rho (up, down):  4.268E-03 0.000E+00
 
     Adding external electric field

     Computed dipole along edir(3) : 
        Dipole                0.0617 Ry au,          0.1569 Debye
        Dipole field          0.0001 Ry au
 
        Potential amp.       -0.0085 Ry
        Total length         52.5607 bohr
 

     total cpu time spent up to now is     7499.6 secs

     total energy              =   -4329.90336395 Ry
     Harris-Foulkes estimate   =   -4329.90338697 Ry
     estimated scf accuracy    <       0.00020389 Ry

     iteration # 40     ecut=    36.75 Ry     beta=0.10
     Davidson diagonalization with overlap
     ethr =  2.54E-08,  avg # of iterations =  2.0

     negative rho (up, down):  3.766E-03 0.000E+00
 
     Adding external electric field

     Computed dipole along edir(3) : 
        Dipole                0.0648 Ry au,          0.1648 Debye
        Dipole field          0.0001 Ry au
 
        Potential amp.       -0.0089 Ry
        Total length         52.5607 bohr
 

     total cpu time spent up to now is     7690.5 secs

     total energy              =   -4329.90335537 Ry
     Harris-Foulkes estimate   =   -4329.90337154 Ry
     estimated scf accuracy    <       0.00007686 Ry

     iteration # 41     ecut=    36.75 Ry     beta=0.10
     Davidson diagonalization with overlap
     ethr =  1.87E-08,  avg # of iterations =  3.9

     negative rho (up, down):  3.672E-03 0.000E+00
 
     Adding external electric field

     Computed dipole along edir(3) : 
        Dipole                0.0641 Ry au,          0.1629 Debye
        Dipole field          0.0001 Ry au
 
        Potential amp.       -0.0088 Ry
        Total length         52.5607 bohr
 

     total cpu time spent up to now is     7892.1 secs

     total energy              =   -4329.90335848 Ry
     Harris-Foulkes estimate   =   -4329.90336023 Ry
     estimated scf accuracy    <       0.00003066 Ry

     iteration # 42     ecut=    36.75 Ry     beta=0.10
     Davidson diagonalization with overlap
     ethr =  7.48E-09,  avg # of iterations =  1.4

     negative rho (up, down):  3.740E-03 0.000E+00
 
     Adding external electric field

     Computed dipole along edir(3) : 
        Dipole                0.0656 Ry au,          0.1667 Debye
        Dipole field          0.0001 Ry au
 
        Potential amp.       -0.0090 Ry
        Total length         52.5607 bohr
 

     total cpu time spent up to now is     8077.8 secs

     total energy              =   -4329.90335774 Ry
     Harris-Foulkes estimate   =   -4329.90335916 Ry
     estimated scf accuracy    <       0.00002897 Ry

     iteration # 43     ecut=    36.75 Ry     beta=0.10
     Davidson diagonalization with overlap
     ethr =  7.06E-09,  avg # of iterations =  1.0

     negative rho (up, down):  3.647E-03 0.000E+00
 
     Adding external electric field

     Computed dipole along edir(3) : 
        Dipole                0.0643 Ry au,          0.1635 Debye
        Dipole field          0.0001 Ry au
 
        Potential amp.       -0.0089 Ry
        Total length         52.5607 bohr
 

     total cpu time spent up to now is     8254.3 secs

     total energy              =   -4329.90335907 Ry
     Harris-Foulkes estimate   =   -4329.90335827 Ry
     estimated scf accuracy    <       0.00002730 Ry

     iteration # 44     ecut=    36.75 Ry     beta=0.10
     Davidson diagonalization with overlap
     ethr =  6.66E-09,  avg # of iterations =  1.0

     negative rho (up, down):  3.615E-03 0.000E+00
 
     Adding external electric field

     Computed dipole along edir(3) : 
        Dipole                0.0638 Ry au,          0.1621 Debye
        Dipole field          0.0001 Ry au
 
        Potential amp.       -0.0088 Ry
        Total length         52.5607 bohr
 

     total cpu time spent up to now is     8428.8 secs

     total energy              =   -4329.90335902 Ry
     Harris-Foulkes estimate   =   -4329.90335935 Ry
     estimated scf accuracy    <       0.00002888 Ry

     iteration # 45     ecut=    36.75 Ry     beta=0.10
     Davidson diagonalization with overlap
     ethr =  6.66E-09,  avg # of iterations =  1.0

     negative rho (up, down):  3.502E-03 0.000E+00
 
     Adding external electric field

     Computed dipole along edir(3) : 
        Dipole                0.0555 Ry au,          0.1410 Debye
        Dipole field          0.0001 Ry au
 
        Potential amp.       -0.0076 Ry
        Total length         52.5607 bohr
 

     total cpu time spent up to now is     8607.5 secs

     total energy              =   -4329.90335502 Ry
     Harris-Foulkes estimate   =   -4329.90336038 Ry
     estimated scf accuracy    <       0.00002828 Ry

     iteration # 46     ecut=    36.75 Ry     beta=0.10
     Davidson diagonalization with overlap
     ethr =  6.66E-09,  avg # of iterations =  3.0

     negative rho (up, down):  3.157E-03 0.000E+00
 
     Adding external electric field

     Computed dipole along edir(3) : 
        Dipole                0.0413 Ry au,          0.1049 Debye
        Dipole field          0.0001 Ry au
 
        Potential amp.       -0.0057 Ry
        Total length         52.5607 bohr
 

     total cpu time spent up to now is     8795.0 secs

     total energy              =   -4329.90335340 Ry
     Harris-Foulkes estimate   =   -4329.90335802 Ry
     estimated scf accuracy    <       0.00001449 Ry

     iteration # 47     ecut=    36.75 Ry     beta=0.10
     Davidson diagonalization with overlap
     ethr =  3.53E-09,  avg # of iterations =  3.9

     negative rho (up, down):  3.501E-03 0.000E+00
 
     Adding external electric field

     Computed dipole along edir(3) : 
        Dipole                0.0335 Ry au,          0.0851 Debye
        Dipole field          0.0000 Ry au
 
        Potential amp.       -0.0046 Ry
        Total length         52.5607 bohr
 

     total cpu time spent up to now is     8995.2 secs

     End of self-consistent calculation

          k = 0.0000 0.0000 0.0000 ( 36131 PWs)   bands (ev):

   -17.5860 -11.7778  -7.8790  -6.8267  -6.7061  -6.5267  -6.4247  -6.3422
    -6.3227  -5.5796  -5.5080  -5.3699  -5.0290  -4.9218  -4.7128  -4.6969
    -4.6739  -4.5275  -4.1399  -4.0024  -3.8823  -3.8506  -3.7524  -3.7411
    -3.7203  -3.7051  -3.6822  -3.5954  -3.5469  -3.4966  -3.4334  -3.4295
    -3.4192  -3.4134  -3.3918  -3.3503  -3.3022  -3.2979  -3.2884  -3.2765
    -3.2520  -3.2391  -3.2233  -3.1717  -3.1591  -3.0919  -3.0691  -3.0619
    -3.0130  -2.9779  -2.9450  -2.9222  -2.8780  -2.8771  -2.8537  -2.7645
    -2.7195  -2.7048  -2.6689  -2.6429  -2.6233  -2.6205  -2.6170  -2.6048
    -2.5936  -2.5856  -2.5614  -2.5594  -2.5259  -2.5069  -2.4977  -2.4749
    -2.4723  -2.4538  -2.4098  -2.4019  -2.3818  -2.3579  -2.3465  -2.3263
    -2.3168  -2.2970  -2.2866  -2.2807  -2.2674  -2.2480  -2.2257  -2.2028
    -2.1852  -2.1790  -2.1760  -2.1649  -2.1518  -2.1367  -2.1220  -2.1023
    -2.0914  -2.0869  -2.0800  -2.0611  -2.0525  -2.0372  -2.0252  -2.0199
    -2.0181  -1.9744  -1.9639  -1.9605  -1.9489  -1.9378  -1.9182  -1.8993
    -1.8888  -1.8812  -1.8730  -1.8645  -1.8551  -1.8413  -1.8084  -1.7752
    -1.7568  -1.7463  -1.7396  -1.7149  -1.7009  -1.6930  -1.6757  -1.6685
    -1.6427  -1.6398  -1.6244  -1.5735  -1.5631  -1.5591  -1.5439  -1.5344
    -1.5109  -1.5003  -1.4955  -1.4831  -1.4661  -1.4569  -1.4066  -1.3738
    -1.3638  -1.3521  -1.3386  -1.3257  -1.3227  -1.3123  -1.3059  -1.2929
    -1.2776  -1.2697  -1.2544  -1.2528  -1.2461  -1.2292  -1.2180  -1.2126
    -1.2033  -1.1926  -1.1869  -1.1783  -1.1720  -1.1593  -1.1485  -1.1412
    -1.1349  -1.1104  -1.0943  -1.0921  -1.0828  -1.0728  -1.0457  -1.0395
    -1.0363  -1.0256  -1.0161  -1.0081  -0.9947  -0.9871  -0.9835  -0.9747
    -0.9610  -0.9429  -0.9388  -0.9314  -0.9299  -0.9134  -0.9020  -0.8810
    -0.8480  -0.8005  -0.7487  -0.7120  -0.5057  -0.4033  -0.3086  -0.1593
     0.1765   0.4708   0.6065   0.6567   0.6773   0.7329   0.7985   0.9548
     1.1963   1.2659   1.3276   1.3763   1.4335   1.4964   1.9390

          k = 0.0000 0.0392 0.0000 ( 36033 PWs)   bands (ev):

   -17.5859 -11.7772  -7.6411  -6.8059  -6.5667  -6.4886  -6.4246  -6.3478
    -6.3137  -5.8275  -5.4553  -5.3370  -5.2859  -4.9975  -4.9150  -4.7143
    -4.6145  -4.4333  -4.2106  -4.1873  -4.1205  -4.0501  -3.9930  -3.9369
    -3.8204  -3.7794  -3.6381  -3.5739  -3.5322  -3.4867  -3.4811  -3.4549
    -3.4206  -3.4013  -3.3300  -3.3096  -3.2494  -3.2407  -3.2321  -3.2202
    -3.1432  -3.1293  -3.1077  -3.0933  -3.0611  -3.0496  -3.0397  -3.0350
    -3.0080  -2.9822  -2.9617  -2.9495  -2.9000  -2.8577  -2.8437  -2.8232
    -2.8006  -2.7893  -2.7545  -2.7286  -2.6970  -2.6437  -2.6180  -2.6081
    -2.5841  -2.5631  -2.5554  -2.5167  -2.4738  -2.4661  -2.4541  -2.4393
    -2.4168  -2.3950  -2.3863  -2.3663  -2.3571  -2.3377  -2.3299  -2.3110
    -2.3078  -2.2881  -2.2713  -2.2593  -2.2259  -2.2212  -2.2058  -2.1927
    -2.1687  -2.1670  -2.1546  -2.1425  -2.1362  -2.1275  -2.1188  -2.1124
    -2.1070  -2.0962  -2.0928  -2.0819  -2.0597  -2.0533  -2.0430  -2.0313
    -2.0044  -1.9906  -1.9764  -1.9670  -1.9578  -1.9218  -1.8946  -1.8818
    -1.8742  -1.8573  -1.8314  -1.8110  -1.8078  -1.7710  -1.7603  -1.7478
    -1.7377  -1.7250  -1.7094  -1.6895  -1.6737  -1.6596  -1.6443  -1.6279
    -1.6119  -1.5936  -1.5822  -1.5689  -1.5537  -1.5511  -1.5355  -1.5196
    -1.5076  -1.4962  -1.4781  -1.4595  -1.4405  -1.4329  -1.4193  -1.4049
    -1.3793  -1.3726  -1.3614  -1.3325  -1.3285  -1.3117  -1.3042  -1.2860
    -1.2799  -1.2683  -1.2487  -1.2407  -1.2237  -1.2104  -1.1984  -1.1914
    -1.1871  -1.1783  -1.1694  -1.1687  -1.1543  -1.1477  -1.1380  -1.1349
    -1.1248  -1.1138  -1.1028  -1.0857  -1.0786  -1.0767  -1.0646  -1.0558
    -1.0404  -1.0341  -1.0154  -1.0120  -1.0044  -0.9951  -0.9852  -0.9828
    -0.9711  -0.9548  -0.9433  -0.9309  -0.9164  -0.9113  -0.8805  -0.8603
    -0.8550  -0.8485  -0.7680  -0.7662  -0.6476  -0.5689  -0.4518  -0.3574
    -0.2217  -0.1443   0.0690   0.0928   0.2324   0.5396   0.9618   1.0179
     1.1193   1.3134   1.4957   1.8563   1.9761   2.4264   2.5038

          k = 0.0000-0.0784 0.0000 ( 36028 PWs)   bands (ev):

   -17.5858 -11.7766  -6.9739  -6.9469  -6.7808  -6.5341  -6.4295  -6.3461
    -6.3256  -5.8906  -5.7982  -5.2707  -4.9522  -4.8911  -4.8588  -4.8535
    -4.8053  -4.5205  -4.4654  -4.4042  -4.1872  -4.1728  -4.1412  -3.9839
    -3.9503  -3.8974  -3.6022  -3.5489  -3.5254  -3.4737  -3.4627  -3.3611
    -3.3420  -3.2853  -3.2723  -3.2652  -3.2595  -3.2180  -3.1648  -3.1447
    -3.1334  -3.1298  -3.1177  -3.1084  -3.0815  -3.0785  -3.0568  -3.0475
    -3.0362  -3.0324  -3.0095  -2.9809  -2.9758  -2.9040  -2.8347  -2.8021
    -2.7856  -2.7691  -2.7382  -2.6997  -2.6435  -2.6346  -2.6276  -2.5939
    -2.5809  -2.5407  -2.5120  -2.5034  -2.4682  -2.4540  -2.4474  -2.4404
    -2.4079  -2.3862  -2.3782  -2.3673  -2.3446  -2.3238  -2.2909  -2.2759
    -2.2658  -2.2581  -2.2456  -2.2387  -2.2261  -2.2209  -2.2028  -2.1858
    -2.1735  -2.1651  -2.1533  -2.1323  -2.1287  -2.1216  -2.1031  -2.0982
    -2.0910  -2.0870  -2.0731  -2.0671  -2.0517  -2.0474  -2.0363  -2.0161
    -1.9932  -1.9801  -1.9602  -1.9468  -1.9387  -1.9270  -1.9098  -1.8901
    -1.8764  -1.8631  -1.8272  -1.8029  -1.7802  -1.7593  -1.7590  -1.7474
    -1.7386  -1.7204  -1.6987  -1.6787  -1.6717  -1.6676  -1.6165  -1.5944
    -1.5711  -1.5620  -1.5491  -1.5444  -1.5374  -1.5294  -1.5192  -1.5007
    -1.4953  -1.4782  -1.4540  -1.4492  -1.4436  -1.4398  -1.4178  -1.4024
    -1.3874  -1.3796  -1.3672  -1.3593  -1.3500  -1.3364  -1.3307  -1.3171
    -1.2887  -1.2766  -1.2656  -1.2496  -1.2283  -1.2268  -1.2055  -1.1952
    -1.1705  -1.1571  -1.1334  -1.1270  -1.1225  -1.1168  -1.1084  -1.1019
    -1.0923  -1.0819  -1.0763  -1.0728  -1.0644  -1.0496  -1.0404  -1.0337
    -1.0330  -1.0280  -1.0172  -1.0102  -1.0001  -0.9899  -0.9855  -0.9712
    -0.9604  -0.9571  -0.9535  -0.9387  -0.9325  -0.9222  -0.9191  -0.8924
    -0.8772  -0.8683  -0.8567  -0.8373  -0.8088  -0.7958  -0.7867  -0.7474
    -0.4420  -0.1994   0.0581   0.1618   0.2685   0.3133   0.6849   0.7505
     0.9116   1.3102   1.8535   2.1548   2.3122   2.4362   2.5390

          k = 0.0320 0.0000 0.0000 ( 36032 PWs)   bands (ev):

   -17.5859 -11.7781  -7.7204  -6.8239  -6.5854  -6.5468  -6.4500  -6.4116
    -6.3331  -6.3197  -5.5088  -5.2851  -4.9544  -4.8888  -4.5882  -4.5580
    -4.5212  -4.3219  -3.9780  -3.9220  -3.8871  -3.8614  -3.8264  -3.7791
    -3.7669  -3.7558  -3.7190  -3.6075  -3.4745  -3.4646  -3.4569  -3.4424
    -3.4159  -3.4063  -3.3824  -3.3721  -3.3649  -3.3491  -3.3193  -3.3009
    -3.2563  -3.2249  -3.2174  -3.1772  -3.1295  -3.0952  -3.0714  -3.0473
    -3.0333  -3.0172  -2.9420  -2.9079  -2.8842  -2.8485  -2.8192  -2.7628
    -2.7500  -2.7190  -2.6979  -2.6519  -2.6459  -2.6245  -2.6192  -2.6149
    -2.6096  -2.5989  -2.5852  -2.5646  -2.5358  -2.5317  -2.5041  -2.4719
    -2.4582  -2.4412  -2.4231  -2.4118  -2.3861  -2.3776  -2.3635  -2.3356
    -2.3182  -2.3042  -2.3000  -2.2935  -2.2763  -2.2586  -2.2404  -2.2334
    -2.2051  -2.1946  -2.1859  -2.1740  -2.1603  -2.1535  -2.1433  -2.1260
    -2.1183  -2.0940  -2.0830  -2.0759  -2.0562  -2.0424  -2.0293  -2.0137
    -1.9977  -1.9901  -1.9689  -1.9575  -1.9464  -1.9386  -1.9312  -1.9192
    -1.8978  -1.8820  -1.8691  -1.8580  -1.8538  -1.8268  -1.8032  -1.7854
    -1.7739  -1.7569  -1.7407  -1.7316  -1.7101  -1.6916  -1.6836  -1.6721
    -1.6584  -1.6290  -1.6200  -1.6113  -1.5908  -1.5838  -1.5686  -1.5560
    -1.5448  -1.5233  -1.5071  -1.4901  -1.4782  -1.4658  -1.4487  -1.4355
    -1.4268  -1.4105  -1.3908  -1.3843  -1.3683  -1.3602  -1.3368  -1.3142
    -1.3091  -1.2923  -1.2758  -1.2667  -1.2490  -1.2300  -1.2241  -1.2078
    -1.1988  -1.1867  -1.1665  -1.1538  -1.1388  -1.1299  -1.1191  -1.1044
    -1.0858  -1.0763  -1.0641  -1.0515  -1.0471  -1.0426  -1.0362  -1.0227
    -1.0117  -1.0080  -0.9975  -0.9926  -0.9881  -0.9831  -0.9708  -0.9594
    -0.9483  -0.9356  -0.9235  -0.9150  -0.9050  -0.8865  -0.7931  -0.7859
    -0.7120  -0.6773  -0.5519  -0.4992  -0.4103  -0.2494  -0.1872  -0.1039
     0.0234   0.0562   0.4955   0.6027   0.6751   0.7341   0.9414   1.0114
     1.1309   1.5117   1.6291   1.6578   1.9523   1.9999   2.2252

          k = 0.0320 0.0392 0.0000 ( 36036 PWs)   bands (ev):

   -17.5858 -11.7775  -7.4848  -6.8097  -6.5376  -6.4380  -6.3961  -6.3444
    -6.2953  -6.2372  -5.6908  -5.4106  -5.2031  -4.9525  -4.8458  -4.7304
    -4.5945  -4.4491  -4.3164  -4.0035  -3.9519  -3.9154  -3.8912  -3.8780
    -3.8341  -3.8174  -3.7432  -3.6316  -3.5490  -3.4715  -3.4529  -3.4326
    -3.4140  -3.3756  -3.3479  -3.3120  -3.3024  -3.2785  -3.2620  -3.2314
    -3.2106  -3.1835  -3.1410  -3.1147  -3.0670  -3.0456  -3.0251  -2.9885
    -2.9810  -2.9456  -2.9358  -2.9181  -2.8997  -2.8543  -2.8402  -2.8121
    -2.8044  -2.7581  -2.7392  -2.6963  -2.6906  -2.6603  -2.6509  -2.6405
    -2.6125  -2.5865  -2.5653  -2.5339  -2.5076  -2.4843  -2.4666  -2.4545
    -2.4411  -2.4138  -2.3941  -2.3816  -2.3679  -2.3568  -2.3472  -2.3317
    -2.3162  -2.2983  -2.2928  -2.2677  -2.2538  -2.2315  -2.2175  -2.2092
    -2.1947  -2.1872  -2.1751  -2.1656  -2.1482  -2.1433  -2.1256  -2.1183
    -2.1053  -2.0951  -2.0888  -2.0872  -2.0652  -2.0544  -2.0277  -2.0140
    -1.9948  -1.9887  -1.9709  -1.9508  -1.9418  -1.9275  -1.9111  -1.8861
    -1.8730  -1.8609  -1.8392  -1.8279  -1.8085  -1.7937  -1.7579  -1.7522
    -1.7482  -1.7233  -1.7181  -1.6971  -1.6758  -1.6617  -1.6489  -1.6352
    -1.6172  -1.6009  -1.5927  -1.5835  -1.5733  -1.5672  -1.5532  -1.5273
    -1.5184  -1.5099  -1.4931  -1.4836  -1.4711  -1.4496  -1.4374  -1.4230
    -1.4163  -1.4048  -1.3968  -1.3823  -1.3755  -1.3471  -1.3370  -1.3284
    -1.3119  -1.3036  -1.2929  -1.2648  -1.2625  -1.2481  -1.2333  -1.2129
    -1.1995  -1.1838  -1.1773  -1.1665  -1.1521  -1.1385  -1.1270  -1.1178
    -1.1050  -1.0892  -1.0754  -1.0658  -1.0539  -1.0423  -1.0307  -1.0136
    -1.0040  -1.0014  -0.9886  -0.9784  -0.9692  -0.9646  -0.9581  -0.9526
    -0.9402  -0.9335  -0.9196  -0.9047  -0.8925  -0.8801  -0.8420  -0.8340
    -0.7831  -0.7537  -0.7252  -0.6245  -0.5589  -0.4388  -0.4006  -0.1804
    -0.0517   0.1331   0.2567   0.3734   0.5958   0.7876   0.9939   1.0733
     1.2171   1.3625   1.5554   1.5935   1.7930   2.1228   2.3499

          k = 0.0320-0.0784 0.0000 ( 35966 PWs)   bands (ev):

   -17.5857 -11.7769  -6.8696  -6.8024  -6.7361  -6.5230  -6.4298  -6.3421
    -6.3238  -5.7809  -5.6737  -5.6528  -5.6456  -5.2241  -4.9507  -4.7757
    -4.7013  -4.3980  -4.3521  -4.2265  -4.1924  -4.1250  -3.9167  -3.8566
    -3.8297  -3.8033  -3.7120  -3.6381  -3.5369  -3.4655  -3.4449  -3.4064
    -3.3959  -3.3398  -3.3170  -3.3041  -3.2732  -3.2356  -3.1956  -3.1840
    -3.1681  -3.1509  -3.1448  -3.1274  -3.1188  -3.0975  -3.0833  -3.0398
    -2.9928  -2.9618  -2.9339  -2.9063  -2.8692  -2.8464  -2.8027  -2.7868
    -2.7809  -2.7589  -2.7475  -2.7106  -2.6970  -2.6705  -2.6388  -2.6202
    -2.6013  -2.5632  -2.5490  -2.5211  -2.5094  -2.4882  -2.4627  -2.4544
    -2.4220  -2.4009  -2.3899  -2.3801  -2.3428  -2.3251  -2.3091  -2.2994
    -2.2788  -2.2757  -2.2649  -2.2600  -2.2386  -2.2217  -2.2032  -2.1900
    -2.1797  -2.1610  -2.1475  -2.1417  -2.1370  -2.1240  -2.1096  -2.1015
    -2.0857  -2.0818  -2.0611  -2.0530  -2.0437  -2.0391  -2.0276  -2.0250
    -2.0165  -1.9989  -1.9944  -1.9786  -1.9503  -1.9224  -1.9086  -1.8831
    -1.8600  -1.8426  -1.8192  -1.8143  -1.7937  -1.7785  -1.7646  -1.7600
    -1.7496  -1.7277  -1.7129  -1.7033  -1.6934  -1.6808  -1.6694  -1.6483
    -1.6391  -1.6262  -1.6061  -1.5809  -1.5630  -1.5464  -1.5205  -1.5161
    -1.5052  -1.4961  -1.4739  -1.4627  -1.4538  -1.4277  -1.4177  -1.4018
    -1.3931  -1.3861  -1.3792  -1.3736  -1.3665  -1.3388  -1.3140  -1.2952
    -1.2906  -1.2679  -1.2596  -1.2471  -1.2296  -1.2183  -1.2050  -1.1867
    -1.1791  -1.1737  -1.1564  -1.1518  -1.1363  -1.1181  -1.1051  -1.0879
    -1.0848  -1.0761  -1.0649  -1.0619  -1.0504  -1.0363  -1.0304  -1.0188
    -1.0111  -1.0098  -0.9985  -0.9797  -0.9690  -0.9626  -0.9544  -0.9448
    -0.9350  -0.9221  -0.9169  -0.9053  -0.8971  -0.8867  -0.8689  -0.8592
    -0.8341  -0.8248  -0.8046  -0.7517  -0.7263  -0.5001  -0.4643  -0.3786
    -0.3367  -0.1195  -0.0954   0.2083   0.3156   0.8429   1.1185   1.1478
     1.2886   1.3717   1.4112   1.6992   2.2549   2.6069   2.7184

          k = 0.0320-0.0392 0.0000 ( 36036 PWs)   bands (ev):

   -17.5858 -11.7775  -7.4853  -6.8095  -6.5366  -6.4364  -6.3995  -6.3451
    -6.2931  -6.2369  -5.6913  -5.4098  -5.1977  -4.9545  -4.8606  -4.7241
    -4.5874  -4.4459  -4.3240  -4.0011  -3.9552  -3.9315  -3.8860  -3.8769
    -3.8421  -3.8018  -3.7497  -3.6153  -3.5472  -3.4832  -3.4411  -3.4366
    -3.4230  -3.3628  -3.3384  -3.3160  -3.2977  -3.2785  -3.2635  -3.2285
    -3.2058  -3.1845  -3.1523  -3.1200  -3.0677  -3.0406  -3.0173  -2.9966
    -2.9827  -2.9578  -2.9360  -2.9178  -2.9075  -2.8701  -2.8453  -2.8197
    -2.7777  -2.7634  -2.7369  -2.7087  -2.6758  -2.6661  -2.6474  -2.6322
    -2.6197  -2.5854  -2.5662  -2.5438  -2.5029  -2.4872  -2.4712  -2.4499
    -2.4323  -2.4046  -2.3956  -2.3877  -2.3672  -2.3501  -2.3445  -2.3285
    -2.3161  -2.3015  -2.2888  -2.2699  -2.2419  -2.2314  -2.2164  -2.2044
    -2.1956  -2.1896  -2.1721  -2.1597  -2.1493  -2.1333  -2.1251  -2.1210
    -2.1067  -2.1006  -2.0910  -2.0802  -2.0705  -2.0545  -2.0407  -2.0237
    -1.9988  -1.9908  -1.9738  -1.9571  -1.9333  -1.9224  -1.9047  -1.8933
    -1.8731  -1.8610  -1.8469  -1.8257  -1.8001  -1.7873  -1.7705  -1.7494
    -1.7363  -1.7259  -1.7241  -1.7040  -1.6893  -1.6615  -1.6522  -1.6362
    -1.6220  -1.6078  -1.5956  -1.5879  -1.5681  -1.5563  -1.5465  -1.5230
    -1.5163  -1.5115  -1.4906  -1.4856  -1.4682  -1.4561  -1.4429  -1.4202
    -1.4070  -1.4021  -1.3929  -1.3813  -1.3635  -1.3515  -1.3379  -1.3304
    -1.3198  -1.2979  -1.2881  -1.2650  -1.2596  -1.2489  -1.2243  -1.2051
    -1.1995  -1.1797  -1.1712  -1.1651  -1.1554  -1.1375  -1.1322  -1.1152
    -1.1025  -1.0917  -1.0868  -1.0686  -1.0634  -1.0358  -1.0327  -1.0127
    -1.0098  -0.9977  -0.9842  -0.9771  -0.9722  -0.9626  -0.9569  -0.9533
    -0.9376  -0.9324  -0.9215  -0.9031  -0.8886  -0.8809  -0.8566  -0.8197
    -0.7833  -0.7678  -0.7193  -0.6225  -0.5594  -0.4361  -0.3892  -0.1745
    -0.0762   0.1339   0.2480   0.3424   0.6066   0.8087   0.9777   1.0721
     1.2287   1.3397   1.5757   1.5910   1.8327   2.1224   2.3348

          k =-0.0640 0.0000 0.0000 ( 36024 PWs)   bands (ev):

   -17.5858 -11.7784  -7.2747  -7.2385  -6.7920  -6.5132  -6.4265  -6.3459
    -6.3240  -6.1621  -6.0757  -5.2743  -4.9392  -4.7865  -4.5121  -4.2929
    -4.2571  -4.2399  -4.2347  -4.0518  -3.7975  -3.7833  -3.7601  -3.7543
    -3.6848  -3.6659  -3.6038  -3.5747  -3.5681  -3.5392  -3.5140  -3.4961
    -3.4355  -3.4174  -3.4102  -3.3985  -3.3597  -3.3463  -3.3015  -3.2750
    -3.2606  -3.2537  -3.2462  -3.2239  -3.1460  -3.1087  -3.0619  -3.0579
    -3.0121  -2.9787  -2.9707  -2.9329  -2.8583  -2.8086  -2.8003  -2.7709
    -2.7394  -2.7258  -2.7078  -2.6969  -2.6633  -2.6408  -2.6394  -2.6236
    -2.6224  -2.5877  -2.5803  -2.5724  -2.5607  -2.5475  -2.5273  -2.5070
    -2.4989  -2.4860  -2.4354  -2.4320  -2.4140  -2.3983  -2.3910  -2.3717
    -2.3456  -2.3342  -2.2986  -2.2929  -2.2808  -2.2705  -2.2602  -2.2408
    -2.2351  -2.2154  -2.2081  -2.1928  -2.1754  -2.1623  -2.1513  -2.1209
    -2.1159  -2.0913  -2.0830  -2.0811  -2.0640  -2.0564  -2.0208  -2.0018
    -1.9881  -1.9613  -1.9506  -1.9435  -1.9331  -1.9247  -1.9038  -1.8879
    -1.8841  -1.8702  -1.8605  -1.8428  -1.8394  -1.8152  -1.8101  -1.7988
    -1.7926  -1.7873  -1.7731  -1.7574  -1.7543  -1.7210  -1.7179  -1.6730
    -1.6684  -1.6374  -1.6306  -1.6204  -1.6135  -1.6092  -1.6065  -1.5873
    -1.5469  -1.5378  -1.5047  -1.4892  -1.4752  -1.4679  -1.4522  -1.4433
    -1.4210  -1.4019  -1.3939  -1.3819  -1.3766  -1.3610  -1.3456  -1.3381
    -1.3340  -1.3104  -1.2863  -1.2694  -1.2550  -1.2526  -1.2399  -1.2380
    -1.2232  -1.2084  -1.1914  -1.1736  -1.1577  -1.1320  -1.1080  -1.1036
    -1.0819  -1.0752  -1.0700  -1.0646  -1.0388  -1.0229  -1.0212  -1.0148
    -1.0112  -0.9949  -0.9864  -0.9731  -0.9688  -0.9517  -0.9438  -0.9261
    -0.9176  -0.9072  -0.8883  -0.8738  -0.8517  -0.8312  -0.8268  -0.6956
    -0.5611  -0.4930  -0.4566  -0.4016  -0.3344  -0.0786   0.0557   0.0972
     0.1306   0.1751   0.2256   0.4113   0.4681   0.8430   0.9654   1.1160
     1.2359   1.4521   1.5534   1.6178   1.6245   2.0226   2.0819

          k =-0.0640 0.0392 0.0000 ( 36040 PWs)   bands (ev):

   -17.5857 -11.7778  -7.0583  -7.0123  -6.7757  -6.5095  -6.4288  -6.3453
    -6.3277  -5.9690  -5.8912  -5.3214  -5.3000  -5.2248  -4.9449  -4.7517
    -4.4868  -4.2801  -4.2513  -4.0962  -3.9089  -3.8904  -3.7438  -3.7363
    -3.7056  -3.6941  -3.6760  -3.6539  -3.5980  -3.5657  -3.5519  -3.5171
    -3.4086  -3.3969  -3.3574  -3.3517  -3.3111  -3.3004  -3.2703  -3.2280
    -3.2082  -3.1964  -3.1813  -3.1530  -3.1113  -3.0483  -2.9897  -2.9673
    -2.9497  -2.9263  -2.9206  -2.8865  -2.8684  -2.8448  -2.8301  -2.8145
    -2.8047  -2.7716  -2.7406  -2.7174  -2.7022  -2.6565  -2.6331  -2.6214
    -2.6126  -2.5965  -2.5859  -2.5632  -2.5536  -2.5291  -2.4947  -2.4678
    -2.4518  -2.4454  -2.4407  -2.4234  -2.4073  -2.3866  -2.3756  -2.3660
    -2.3534  -2.3288  -2.2681  -2.2509  -2.2389  -2.2362  -2.2238  -2.2175
    -2.2022  -2.1853  -2.1807  -2.1748  -2.1674  -2.1499  -2.1329  -2.1087
    -2.1068  -2.0854  -2.0789  -2.0577  -2.0420  -2.0320  -2.0182  -2.0109
    -2.0002  -1.9806  -1.9678  -1.9547  -1.9476  -1.9355  -1.9148  -1.8985
    -1.8843  -1.8690  -1.8316  -1.8269  -1.8134  -1.8030  -1.7978  -1.7768
    -1.7613  -1.7476  -1.7316  -1.7109  -1.6939  -1.6664  -1.6506  -1.6424
    -1.6275  -1.6232  -1.6117  -1.5973  -1.5880  -1.5819  -1.5686  -1.5557
    -1.5437  -1.5276  -1.5236  -1.5042  -1.4915  -1.4719  -1.4573  -1.4482
    -1.4170  -1.4133  -1.3923  -1.3763  -1.3650  -1.3498  -1.3360  -1.3202
    -1.3066  -1.2902  -1.2836  -1.2716  -1.2632  -1.2555  -1.2458  -1.2399
    -1.2141  -1.1886  -1.1745  -1.1675  -1.1546  -1.1477  -1.1287  -1.1186
    -1.0963  -1.0841  -1.0766  -1.0649  -1.0393  -1.0304  -1.0075  -0.9983
    -0.9958  -0.9879  -0.9659  -0.9568  -0.9545  -0.9461  -0.9371  -0.9290
    -0.9145  -0.9109  -0.8969  -0.8853  -0.8775  -0.8705  -0.8450  -0.8383
    -0.8058  -0.7170  -0.6951  -0.5928  -0.4846  -0.2196  -0.1043   0.3039
     0.3417   0.4035   0.4555   0.7628   0.7812   0.8018   0.8958   1.0392
     1.3790   1.5887   1.6186   1.6539   1.7891   1.8443   1.8831

          k =-0.0640-0.0784 0.0000 ( 36100 PWs)   bands (ev):

   -17.5857 -11.7774  -6.8264  -6.5315  -6.4671  -6.4306  -6.4092  -6.3272
    -6.2972  -6.2621  -6.2557  -5.5131  -5.3688  -5.2680  -5.2655  -5.0112
    -4.9383  -4.3613  -4.0793  -4.0673  -4.0415  -3.9894  -3.9694  -3.8898
    -3.6808  -3.6665  -3.6181  -3.6029  -3.5922  -3.5681  -3.5615  -3.5411
    -3.4558  -3.4330  -3.3349  -3.3207  -3.2733  -3.2692  -3.2219  -3.1779
    -3.1706  -3.1485  -3.1249  -3.1210  -3.0873  -3.0736  -3.0481  -3.0360
    -3.0054  -2.9776  -2.9518  -2.8981  -2.8857  -2.8187  -2.7801  -2.7482
    -2.7074  -2.7011  -2.6879  -2.6789  -2.6735  -2.6699  -2.6639  -2.6526
    -2.6397  -2.6389  -2.6314  -2.6030  -2.5576  -2.5531  -2.4556  -2.4430
    -2.4379  -2.4070  -2.3714  -2.3662  -2.3515  -2.3409  -2.3307  -2.3125
    -2.2878  -2.2758  -2.2666  -2.2459  -2.2422  -2.2159  -2.1967  -2.1873
    -2.1824  -2.1723  -2.1638  -2.1616  -2.1534  -2.1442  -2.1267  -2.0944
    -2.0736  -2.0623  -2.0528  -2.0419  -2.0208  -2.0197  -2.0116  -1.9905
    -1.9881  -1.9830  -1.9676  -1.9603  -1.9459  -1.9383  -1.9310  -1.9226
    -1.9123  -1.8849  -1.8629  -1.8559  -1.8407  -1.7949  -1.7863  -1.7800
    -1.7678  -1.7467  -1.7432  -1.7293  -1.7283  -1.7199  -1.7132  -1.6827
    -1.6719  -1.6469  -1.6374  -1.6204  -1.6125  -1.5868  -1.5710  -1.5490
    -1.4998  -1.4864  -1.4736  -1.4687  -1.4537  -1.4354  -1.4135  -1.4047
    -1.3937  -1.3702  -1.3402  -1.3311  -1.3279  -1.3113  -1.3009  -1.2943
    -1.2771  -1.2626  -1.2489  -1.2391  -1.2302  -1.2083  -1.2041  -1.1923
    -1.1881  -1.1794  -1.1670  -1.1574  -1.1429  -1.1115  -1.1076  -1.0988
    -1.0752  -1.0674  -1.0610  -1.0560  -1.0421  -1.0246  -1.0164  -1.0042
    -1.0014  -0.9929  -0.9738  -0.9673  -0.9510  -0.9475  -0.9432  -0.9272
    -0.9252  -0.8967  -0.8940  -0.8765  -0.8694  -0.8570  -0.8464  -0.8293
    -0.8267  -0.8174  -0.7692  -0.7515  -0.7360  -0.5740  -0.4243   0.2429
     0.3049   0.4461   0.5255   0.6864   0.7909   0.8012   0.8432   1.0546
     1.2080   1.3227   1.6322   1.9262   1.9965   2.0333   2.0640

     the Fermi energy is     0.7167 ev

!    total energy              =   -4329.90334971 Ry
     Harris-Foulkes estimate   =   -4329.90335515 Ry
     estimated scf accuracy    <       0.00000673 Ry

     The total energy is the sum of the following terms:

     one-electron contribution =  -48429.87857601 Ry
     hartree contribution      =   24645.92936008 Ry
     xc contribution           =   -1494.56903834 Ry
     ewald contribution        =   20948.61549579 Ry
     electric field correction =       0.00000147 Ry
     smearing contrib. (-TS)   =      -0.00059269 Ry

     convergence has been achieved in  47 iterations

     Forces acting on atoms (Ry/au):


     negative rho (up, down):  3.501E-03 0.000E+00
     atom    1 type  1   force =    -0.02219027    0.00524418   -0.01710357
     atom    2 type  2   force =     0.02102379    0.00266176    0.02479412
     atom    3 type  2   force =    -0.00227847   -0.00042969   -0.00738008
     atom    4 type  2   force =     0.00106689    0.00305832   -0.00296478
     atom    5 type  2   force =    -0.00009757   -0.00086386   -0.00157939
     atom    6 type  2   force =    -0.00026000    0.00260610    0.00170944
     atom    7 type  2   force =    -0.00274236    0.00263366   -0.00201720
     atom    8 type  2   force =     0.00066054    0.00168801   -0.00197820
     atom    9 type  2   force =     0.00068723   -0.00062864   -0.00016508
     atom   10 type  2   force =     0.00376757   -0.00203569   -0.00214546
     atom   11 type  2   force =    -0.00088002   -0.00056759   -0.00163361
     atom   12 type  2   force =    -0.00111215   -0.00059894    0.00233906
     atom   13 type  2   force =     0.00009049    0.00113699    0.00171795
     atom   14 type  2   force =    -0.00018802    0.00154143    0.00285856
     atom   15 type  2   force =    -0.00038793   -0.00033628    0.00025362
     atom   16 type  2   force =    -0.00082370   -0.00054322    0.00061986
     atom   17 type  2   force =     0.00075945   -0.00034530    0.00057730
     atom   18 type  2   force =     0.00031590   -0.00046001    0.00049971
     atom   19 type  2   force =     0.00017067    0.00178080    0.00123620
     atom   20 type  2   force =     0.00119472    0.00112124    0.00077226
     atom   21 type  2   force =    -0.00000510    0.00165187    0.00330720
     atom   22 type  2   force =    -0.00022797    0.00338710   -0.00294666
     atom   23 type  2   force =    -0.00099520    0.00262891   -0.00140058
     atom   24 type  2   force =     0.00103476    0.00228881   -0.00218548
     atom   25 type  2   force =     0.00005233   -0.00446641   -0.00710267
     atom   26 type  2   force =     0.00061357   -0.00429673   -0.00812759
     atom   27 type  2   force =    -0.00014827   -0.00371071   -0.00852316
     atom   28 type  2   force =    -0.00055957   -0.00234511   -0.00593351
     atom   29 type  2   force =    -0.00009885   -0.00171257   -0.00521124
     atom   30 type  2   force =     0.00022352   -0.00173157   -0.00470601
     atom   31 type  2   force =     0.00033494   -0.00177179    0.00150348
     atom   32 type  2   force =    -0.00028078   -0.00251287    0.00223742
     atom   33 type  2   force =     0.00005573   -0.00319699    0.00223290
     atom   34 type  2   force =     0.00005315    0.00270633    0.01378370
     atom   35 type  2   force =     0.00059544    0.00410775    0.01282090
     atom   36 type  2   force =    -0.00076846    0.00381725    0.01186781
     atom   37 type  3   force =    -0.02919412    0.00031554   -0.02580508
     atom   38 type  4   force =    -0.01730337   -0.02733807    0.07940359
     atom   39 type  5   force =    -0.00266549    0.01430222   -0.03430054
     atom   40 type  5   force =     0.03032550    0.00569432    0.01745966
     atom   41 type  5   force =     0.02018145   -0.00448056   -0.03878486

     Total force =     0.128303     Total SCF correction =     0.007533
 !ASE
     Check: negative starting charge=   -0.003033
     NEW-OLD atomic charge density approx. for the potential

     Check: negative/imaginary core charge=   -0.000012    0.000000
     Check: negative starting charge=   -0.003030

     negative rho (up, down):  3.524E-03 0.000E+00
 
     Adding external electric field

     Computed dipole along edir(3) : 
        Dipole                0.0335 Ry au,          0.0851 Debye
        Dipole field          0.0000 Ry au
 
        Potential amp.       -0.0046 Ry
        Total length         52.5607 bohr
 

     total cpu time spent up to now is    10862.5 secs

     per-process dynamical memory:   319.8 Mb

     Self-consistent Calculation

     iteration #  1     ecut=    36.75 Ry     beta=0.10
     Davidson diagonalization with overlap
     ethr =  3.53E-09,  avg # of iterations =  9.0

     negative rho (up, down):  3.477E-03 0.000E+00
 
     Adding external electric field

     Computed dipole along edir(3) : 
        Dipole                0.0336 Ry au,          0.0855 Debye
        Dipole field          0.0000 Ry au
 
        Potential amp.       -0.0046 Ry
        Total length         52.5607 bohr
 

     total cpu time spent up to now is    11333.2 secs

     total energy              =   -4329.91017049 Ry
     Harris-Foulkes estimate   =   -4329.91020566 Ry
     estimated scf accuracy    <       0.00149187 Ry

     iteration #  2     ecut=    36.75 Ry     beta=0.10
     Davidson diagonalization with overlap
     ethr =  3.64E-07,  avg # of iterations =  1.0

     negative rho (up, down):  3.271E-03 0.000E+00
 
     Adding external electric field

     Computed dipole along edir(3) : 
        Dipole                0.0347 Ry au,          0.0883 Debye
        Dipole field          0.0000 Ry au
 
        Potential amp.       -0.0048 Ry
        Total length         52.5607 bohr
 

     total cpu time spent up to now is    11520.2 secs

     total energy              =   -4329.91002425 Ry
     Harris-Foulkes estimate   =   -4329.91017291 Ry
     estimated scf accuracy    <       0.00109220 Ry

     iteration #  3     ecut=    36.75 Ry     beta=0.10
     Davidson diagonalization with overlap
     ethr =  2.66E-07,  avg # of iterations =  3.0

     negative rho (up, down):  3.245E-03 0.000E+00
 
     Adding external electric field

     Computed dipole along edir(3) : 
        Dipole                0.0350 Ry au,          0.0890 Debye
        Dipole field          0.0000 Ry au
 
        Potential amp.       -0.0048 Ry
        Total length         52.5607 bohr
 

     total cpu time spent up to now is    11723.7 secs

     total energy              =   -4329.91010017 Ry
     Harris-Foulkes estimate   =   -4329.91010513 Ry
     estimated scf accuracy    <       0.00012141 Ry

     iteration #  4     ecut=    36.75 Ry     beta=0.10
     Davidson diagonalization with overlap
     ethr =  2.96E-08,  avg # of iterations =  3.5

     negative rho (up, down):  3.067E-03 0.000E+00
 
     Adding external electric field

     Computed dipole along edir(3) : 
        Dipole                0.0376 Ry au,          0.0955 Debye
        Dipole field          0.0000 Ry au
 
        Potential amp.       -0.0052 Ry
        Total length         52.5607 bohr
 

     total cpu time spent up to now is    11919.4 secs

     total energy              =   -4329.91008242 Ry
     Harris-Foulkes estimate   =   -4329.91010285 Ry
     estimated scf accuracy    <       0.00009818 Ry

     iteration #  5     ecut=    36.75 Ry     beta=0.10
     Davidson diagonalization with overlap
     ethr =  2.39E-08,  avg # of iterations =  4.3

     negative rho (up, down):  3.036E-03 0.000E+00
 
     Adding external electric field

     Computed dipole along edir(3) : 
        Dipole                0.0382 Ry au,          0.0970 Debye
        Dipole field          0.0001 Ry au
 
        Potential amp.       -0.0053 Ry
        Total length         52.5607 bohr
 

     total cpu time spent up to now is    12132.1 secs

     total energy              =   -4329.91009202 Ry
     Harris-Foulkes estimate   =   -4329.91009385 Ry
     estimated scf accuracy    <       0.00002989 Ry

     iteration #  6     ecut=    36.75 Ry     beta=0.10
     Davidson diagonalization with overlap
     ethr =  7.29E-09,  avg # of iterations =  1.8

     negative rho (up, down):  2.956E-03 0.000E+00
 
     Adding external electric field

     Computed dipole along edir(3) : 
        Dipole                0.0407 Ry au,          0.1034 Debye
        Dipole field          0.0001 Ry au
 
        Potential amp.       -0.0056 Ry
        Total length         52.5607 bohr
 

     total cpu time spent up to now is    12318.3 secs

     total energy              =   -4329.91008903 Ry
     Harris-Foulkes estimate   =   -4329.91009231 Ry
     estimated scf accuracy    <       0.00002088 Ry

     iteration #  7     ecut=    36.75 Ry     beta=0.10
     Davidson diagonalization with overlap
     ethr =  5.09E-09,  avg # of iterations =  4.0

     negative rho (up, down):  2.947E-03 0.000E+00
 
     Adding external electric field

     Computed dipole along edir(3) : 
        Dipole                0.0410 Ry au,          0.1041 Debye
        Dipole field          0.0001 Ry au
 
        Potential amp.       -0.0056 Ry
        Total length         52.5607 bohr
 

     total cpu time spent up to now is    12521.4 secs

     total energy              =   -4329.91009076 Ry
     Harris-Foulkes estimate   =   -4329.91009062 Ry
     estimated scf accuracy    <       0.00001374 Ry

     iteration #  8     ecut=    36.75 Ry     beta=0.10
     Davidson diagonalization with overlap
     ethr =  3.35E-09,  avg # of iterations =  1.0

     negative rho (up, down):  2.923E-03 0.000E+00
 
     Adding external electric field

     Computed dipole along edir(3) : 
        Dipole                0.0441 Ry au,          0.1122 Debye
        Dipole field          0.0001 Ry au
 
        Potential amp.       -0.0061 Ry
        Total length         52.5607 bohr
 

     total cpu time spent up to now is    12716.8 secs

     total energy              =   -4329.91009027 Ry
     Harris-Foulkes estimate   =   -4329.91009049 Ry
     estimated scf accuracy    <       0.00001340 Ry

     iteration #  9     ecut=    36.75 Ry     beta=0.10
     Davidson diagonalization with overlap
     ethr =  3.27E-09,  avg # of iterations =  2.4

     negative rho (up, down):  2.921E-03 0.000E+00
 
     Adding external electric field

     Computed dipole along edir(3) : 
        Dipole                0.0435 Ry au,          0.1107 Debye
        Dipole field          0.0001 Ry au
 
        Potential amp.       -0.0060 Ry
        Total length         52.5607 bohr
 

     total cpu time spent up to now is    12910.3 secs

     total energy              =   -4329.91009082 Ry
     Harris-Foulkes estimate   =   -4329.91009057 Ry
     estimated scf accuracy    <       0.00001211 Ry

     iteration # 10     ecut=    36.75 Ry     beta=0.10
     Davidson diagonalization with overlap
     ethr =  2.95E-09,  avg # of iterations =  1.0

     negative rho (up, down):  2.930E-03 0.000E+00
 
     Adding external electric field

     Computed dipole along edir(3) : 
        Dipole                0.0464 Ry au,          0.1180 Debye
        Dipole field          0.0001 Ry au
 
        Potential amp.       -0.0064 Ry
        Total length         52.5607 bohr
 

     total cpu time spent up to now is    13100.4 secs

     total energy              =   -4329.91009028 Ry
     Harris-Foulkes estimate   =   -4329.91009053 Ry
     estimated scf accuracy    <       0.00001223 Ry

     iteration # 11     ecut=    36.75 Ry     beta=0.10
     Davidson diagonalization with overlap
     ethr =  2.95E-09,  avg # of iterations =  1.1

     negative rho (up, down):  3.075E-03 0.000E+00
 
     Adding external electric field

     Computed dipole along edir(3) : 
        Dipole                0.0529 Ry au,          0.1345 Debye
        Dipole field          0.0001 Ry au
 
        Potential amp.       -0.0073 Ry
        Total length         52.5607 bohr
 

     total cpu time spent up to now is    13283.8 secs

     total energy              =   -4329.91008883 Ry
     Harris-Foulkes estimate   =   -4329.91008950 Ry
     estimated scf accuracy    <       0.00001110 Ry

     iteration # 12     ecut=    36.75 Ry     beta=0.10
     Davidson diagonalization with overlap
     ethr =  2.71E-09,  avg # of iterations =  3.5

     negative rho (up, down):  3.140E-03 0.000E+00
 
     Adding external electric field

[...]
    -2.5452  -2.5083  -2.4882  -2.4561  -2.4418  -2.4203  -2.4090  -2.3889
    -2.3730  -2.3547  -2.3411  -2.3258  -2.3008  -2.2831  -2.2629  -2.2476
    -2.2405  -2.2304  -2.2075  -2.1958  -2.1910  -2.1830  -2.1639  -2.1594
    -2.1359  -2.1209  -2.1149  -2.1023  -2.0932  -2.0835  -2.0690  -2.0584
    -2.0538  -2.0456  -2.0454  -2.0276  -2.0253  -2.0154  -1.9844  -1.9737
    -1.9627  -1.9304  -1.9194  -1.9115  -1.8933  -1.8921  -1.8640  -1.8553
    -1.8359  -1.8121  -1.7769  -1.7707  -1.7566  -1.7331  -1.7258  -1.7064
    -1.7004  -1.6801  -1.6583  -1.6482  -1.6410  -1.6288  -1.5906  -1.5696
    -1.5427  -1.5284  -1.5187  -1.5085  -1.5002  -1.4941  -1.4742  -1.4638
    -1.4541  -1.4364  -1.4285  -1.4105  -1.4064  -1.4050  -1.3840  -1.3748
    -1.3547  -1.3470  -1.3373  -1.3228  -1.3163  -1.3025  -1.2938  -1.2814
    -1.2562  -1.2406  -1.2298  -1.2148  -1.1930  -1.1840  -1.1697  -1.1566
    -1.1317  -1.1255  -1.1046  -1.0969  -1.0911  -1.0799  -1.0761  -1.0668
    -1.0559  -1.0429  -1.0410  -1.0376  -1.0269  -1.0103  -1.0056  -0.9990
    -0.9968  -0.9922  -0.9811  -0.9717  -0.9646  -0.9547  -0.9509  -0.9394
    -0.9250  -0.9183  -0.9154  -0.9030  -0.8984  -0.8867  -0.8785  -0.8590
    -0.8413  -0.8281  -0.8189  -0.7979  -0.7604  -0.7542  -0.7515  -0.7098
    -0.3733  -0.1580   0.1217   0.1808   0.3309   0.3399   0.7220   0.7867
     0.9747   1.3681   1.8674   2.1502   2.3604   2.4591   2.5927

          k = 0.0320 0.0000 0.0000 ( 36032 PWs)   bands (ev):

   -17.1553 -11.9773  -7.6868  -6.7017  -6.5205  -6.4693  -6.3974  -6.3524
    -6.2760  -6.2648  -5.5867  -5.4419  -5.3526  -4.9663  -4.5516  -4.5262
    -4.4965  -4.2828  -3.9282  -3.8936  -3.8456  -3.8289  -3.7856  -3.7504
    -3.7344  -3.7156  -3.6622  -3.5745  -3.4437  -3.4346  -3.4191  -3.4062
    -3.3832  -3.3705  -3.3514  -3.3394  -3.3289  -3.3079  -3.2952  -3.2573
    -3.2193  -3.1866  -3.1788  -3.1479  -3.0859  -3.0636  -3.0309  -3.0112
    -2.9990  -2.9701  -2.9018  -2.8725  -2.8332  -2.8099  -2.7836  -2.7231
    -2.7121  -2.6739  -2.6479  -2.6167  -2.6137  -2.5961  -2.5874  -2.5858
    -2.5719  -2.5611  -2.5450  -2.5304  -2.5224  -2.4994  -2.4721  -2.4558
    -2.4174  -2.4076  -2.3901  -2.3671  -2.3489  -2.3410  -2.3205  -2.3037
    -2.2747  -2.2697  -2.2559  -2.2460  -2.2308  -2.2181  -2.2030  -2.1879
    -2.1725  -2.1690  -2.1396  -2.1334  -2.1229  -2.1144  -2.1048  -2.0905
    -2.0805  -2.0595  -2.0451  -2.0232  -2.0125  -2.0003  -1.9919  -1.9781
    -1.9616  -1.9427  -1.9299  -1.9194  -1.9128  -1.9026  -1.8904  -1.8696
    -1.8626  -1.8446  -1.8362  -1.8208  -1.8111  -1.7891  -1.7577  -1.7517
    -1.7400  -1.7204  -1.7091  -1.6932  -1.6795  -1.6602  -1.6497  -1.6339
    -1.6227  -1.5982  -1.5846  -1.5779  -1.5586  -1.5511  -1.5399  -1.5159
    -1.5061  -1.4903  -1.4685  -1.4584  -1.4464  -1.4307  -1.4115  -1.4013
    -1.3920  -1.3710  -1.3636  -1.3504  -1.3396  -1.3239  -1.3059  -1.2827
    -1.2711  -1.2538  -1.2401  -1.2272  -1.2129  -1.1999  -1.1910  -1.1773
    -1.1642  -1.1550  -1.1318  -1.1151  -1.1044  -1.0932  -1.0820  -1.0698
    -1.0491  -1.0414  -1.0284  -1.0174  -1.0146  -1.0100  -1.0027  -0.9878
    -0.9767  -0.9720  -0.9613  -0.9606  -0.9538  -0.9464  -0.9335  -0.9267
    -0.9138  -0.9001  -0.8867  -0.8780  -0.8659  -0.8472  -0.7591  -0.7522
    -0.6692  -0.6006  -0.5106  -0.4566  -0.3943  -0.2167  -0.1424  -0.0638
     0.0571   0.0917   0.5315   0.6388   0.7018   0.7526   0.9613   1.0786
     1.1720   1.5074   1.6722   1.6924   1.9855   2.0340   2.2368

          k = 0.0320 0.0392 0.0000 ( 36036 PWs)   bands (ev):

   -17.1552 -11.9768  -7.4510  -6.6680  -6.4441  -6.3927  -6.3380  -6.2874
    -6.2533  -6.1883  -5.6585  -5.5787  -5.4006  -5.2445  -4.8970  -4.6963
    -4.5540  -4.4207  -4.2833  -3.9564  -3.9366  -3.8817  -3.8546  -3.8450
    -3.7995  -3.7643  -3.6784  -3.6013  -3.5302  -3.4354  -3.4072  -3.4006
    -3.3849  -3.3318  -3.3066  -3.2739  -3.2691  -3.2401  -3.2323  -3.1878
    -3.1779  -3.1550  -3.1008  -3.0694  -3.0372  -3.0089  -2.9832  -2.9578
    -2.9336  -2.9115  -2.9010  -2.8832  -2.8635  -2.8178  -2.7977  -2.7751
    -2.7469  -2.7082  -2.7020  -2.6758  -2.6551  -2.6405  -2.6163  -2.6014
    -2.5835  -2.5446  -2.5342  -2.5027  -2.4648  -2.4465  -2.4387  -2.4148
    -2.3950  -2.3762  -2.3616  -2.3458  -2.3325  -2.3123  -2.3054  -2.2911
    -2.2783  -2.2570  -2.2445  -2.2253  -2.2193  -2.1901  -2.1802  -2.1740
    -2.1587  -2.1464  -2.1342  -2.1272  -2.1175  -2.1046  -2.0883  -2.0801
    -2.0702  -2.0602  -2.0502  -2.0473  -2.0338  -2.0150  -1.9928  -1.9826
    -1.9626  -1.9576  -1.9224  -1.9166  -1.9055  -1.8815  -1.8659  -1.8589
    -1.8332  -1.8234  -1.8016  -1.7903  -1.7700  -1.7567  -1.7275  -1.7132
    -1.7105  -1.6824  -1.6807  -1.6608  -1.6408  -1.6237  -1.6140  -1.5992
    -1.5801  -1.5779  -1.5580  -1.5494  -1.5383  -1.5326  -1.5145  -1.4979
    -1.4807  -1.4749  -1.4634  -1.4460  -1.4385  -1.4107  -1.4045  -1.3854
    -1.3817  -1.3704  -1.3640  -1.3489  -1.3388  -1.3162  -1.3043  -1.2917
    -1.2746  -1.2661  -1.2606  -1.2289  -1.2252  -1.2143  -1.1972  -1.1771
    -1.1651  -1.1564  -1.1442  -1.1321  -1.1175  -1.1007  -1.0919  -1.0817
    -1.0718  -1.0561  -1.0428  -1.0340  -1.0101  -1.0089  -0.9923  -0.9836
    -0.9714  -0.9639  -0.9506  -0.9453  -0.9349  -0.9261  -0.9206  -0.9154
    -0.9074  -0.8975  -0.8869  -0.8711  -0.8606  -0.8453  -0.8108  -0.7947
    -0.7487  -0.7018  -0.6487  -0.5846  -0.5333  -0.4101  -0.3683  -0.1198
    -0.0170   0.1726   0.2904   0.3983   0.6194   0.8438   1.0171   1.0992
     1.2804   1.3913   1.5769   1.6283   1.8523   2.1508   2.3758

          k = 0.0320-0.0784 0.0000 ( 35966 PWs)   bands (ev):

   -17.1551 -11.9761  -6.8084  -6.7651  -6.6143  -6.4365  -6.3749  -6.2857
    -6.2644  -5.7546  -5.6446  -5.6229  -5.6098  -5.5206  -5.3515  -4.7897
    -4.6666  -4.3710  -4.3326  -4.1918  -4.1569  -4.0705  -3.8954  -3.8207
    -3.7945  -3.7567  -3.6687  -3.5854  -3.5205  -3.4255  -3.3994  -3.3746
    -3.3638  -3.3030  -3.2837  -3.2656  -3.2392  -3.1978  -3.1569  -3.1480
    -3.1358  -3.1131  -3.1092  -3.0939  -3.0834  -3.0620  -3.0522  -2.9989
    -2.9365  -2.9265  -2.8803  -2.8540  -2.8316  -2.8134  -2.7709  -2.7589
    -2.7417  -2.7290  -2.7106  -2.6682  -2.6559  -2.6353  -2.6179  -2.5785
    -2.5662  -2.5257  -2.5110  -2.4836  -2.4751  -2.4389  -2.4303  -2.4032
    -2.3796  -2.3682  -2.3544  -2.3299  -2.3050  -2.2857  -2.2734  -2.2545
    -2.2459  -2.2395  -2.2277  -2.2237  -2.2047  -2.1795  -2.1668  -2.1487
    -2.1433  -2.1235  -2.1111  -2.1065  -2.0978  -2.0881  -2.0829  -2.0666
    -2.0508  -2.0458  -2.0225  -2.0180  -2.0086  -2.0036  -1.9950  -1.9833
    -1.9792  -1.9636  -1.9565  -1.9408  -1.9175  -1.8866  -1.8682  -1.8495
    -1.8187  -1.8124  -1.7792  -1.7680  -1.7589  -1.7420  -1.7265  -1.7215
    -1.7084  -1.6887  -1.6812  -1.6708  -1.6574  -1.6446  -1.6330  -1.6117
    -1.6031  -1.5981  -1.5701  -1.5457  -1.5277  -1.5143  -1.4930  -1.4891
    -1.4762  -1.4534  -1.4394  -1.4252  -1.4138  -1.3918  -1.3739  -1.3633
    -1.3591  -1.3513  -1.3470  -1.3414  -1.3318  -1.2950  -1.2875  -1.2623
    -1.2544  -1.2356  -1.2261  -1.2107  -1.1985  -1.1855  -1.1720  -1.1519
    -1.1435  -1.1367  -1.1240  -1.1177  -1.1066  -1.0896  -1.0723  -1.0588
    -1.0476  -1.0411  -1.0304  -1.0229  -1.0123  -1.0037  -0.9953  -0.9822
    -0.9794  -0.9707  -0.9648  -0.9439  -0.9317  -0.9282  -0.9173  -0.9074
    -0.9037  -0.8923  -0.8836  -0.8749  -0.8623  -0.8528  -0.8341  -0.8249
    -0.7976  -0.7863  -0.7705  -0.6987  -0.6578  -0.4622  -0.4207  -0.3461
    -0.2902  -0.0816  -0.0650   0.2605   0.3747   0.8599   1.1413   1.1788
     1.3280   1.4122   1.4638   1.7673   2.2499   2.6485   2.7682

          k = 0.0320-0.0392 0.0000 ( 36036 PWs)   bands (ev):

   -17.1552 -11.9768  -7.4519  -6.6680  -6.4444  -6.3884  -6.3443  -6.2873
    -6.2460  -6.1904  -5.6577  -5.5803  -5.3991  -5.2366  -4.9145  -4.6920
    -4.5542  -4.4160  -4.2876  -3.9483  -3.9317  -3.8955  -3.8503  -3.8424
    -3.8100  -3.7603  -3.6979  -3.5836  -3.5276  -3.4320  -3.4073  -3.4004
    -3.3838  -3.3348  -3.3053  -3.2844  -3.2632  -3.2432  -3.2263  -3.1938
    -3.1648  -3.1454  -3.1117  -3.0776  -3.0281  -3.0114  -2.9787  -2.9584
    -2.9431  -2.9223  -2.8937  -2.8890  -2.8541  -2.8270  -2.8083  -2.7716
    -2.7556  -2.7142  -2.6973  -2.6830  -2.6431  -2.6279  -2.6104  -2.6021
    -2.5860  -2.5598  -2.5262  -2.5009  -2.4642  -2.4488  -2.4338  -2.4214
    -2.3921  -2.3747  -2.3611  -2.3424  -2.3218  -2.3106  -2.3052  -2.2970
    -2.2746  -2.2567  -2.2509  -2.2233  -2.2131  -2.1908  -2.1820  -2.1645
    -2.1553  -2.1485  -2.1334  -2.1289  -2.1161  -2.1005  -2.0920  -2.0762
    -2.0731  -2.0607  -2.0514  -2.0396  -2.0262  -2.0121  -1.9953  -1.9856
    -1.9647  -1.9551  -1.9360  -1.9254  -1.8992  -1.8875  -1.8719  -1.8495
    -1.8324  -1.8209  -1.8053  -1.7907  -1.7666  -1.7442  -1.7367  -1.7194
    -1.6970  -1.6910  -1.6827  -1.6680  -1.6523  -1.6289  -1.6203  -1.6017
    -1.5854  -1.5718  -1.5639  -1.5532  -1.5348  -1.5243  -1.5075  -1.4912
    -1.4883  -1.4769  -1.4585  -1.4537  -1.4308  -1.4251  -1.4111  -1.3851
    -1.3715  -1.3653  -1.3515  -1.3426  -1.3292  -1.3164  -1.3049  -1.2977
    -1.2882  -1.2714  -1.2523  -1.2324  -1.2236  -1.2131  -1.1919  -1.1739
    -1.1665  -1.1481  -1.1367  -1.1283  -1.1185  -1.1025  -1.0920  -1.0790
    -1.0701  -1.0570  -1.0493  -1.0341  -1.0260  -1.0074  -0.9965  -0.9792
    -0.9750  -0.9627  -0.9488  -0.9428  -0.9336  -0.9282  -0.9233  -0.9166
    -0.8990  -0.8978  -0.8882  -0.8696  -0.8561  -0.8465  -0.8056  -0.7833
    -0.7488  -0.7120  -0.6610  -0.5780  -0.5240  -0.4130  -0.3572  -0.1264
    -0.0255   0.1743   0.2877   0.3721   0.6309   0.8425   1.0028   1.0959
     1.2941   1.3714   1.6009   1.6202   1.8888   2.1578   2.3627

          k =-0.0640 0.0000 0.0000 ( 36024 PWs)   bands (ev):

   -17.1551 -11.9776  -7.2550  -7.1924  -6.6492  -6.4231  -6.3725  -6.2828
    -6.2692  -6.1358  -6.0094  -5.5670  -5.3729  -4.8151  -4.4983  -4.2479
    -4.2182  -4.2056  -4.1925  -3.9815  -3.7616  -3.7497  -3.7301  -3.7237
    -3.6501  -3.6368  -3.5635  -3.5465  -3.5356  -3.4996  -3.4800  -3.4522
    -3.4035  -3.3780  -3.3673  -3.3589  -3.3164  -3.3103  -3.2776  -3.2391
    -3.2294  -3.2149  -3.2074  -3.1890  -3.1031  -3.0953  -3.0272  -3.0223
    -2.9679  -2.9478  -2.9288  -2.8952  -2.7913  -2.7763  -2.7505  -2.7268
    -2.7069  -2.6920  -2.6729  -2.6599  -2.6243  -2.6102  -2.6070  -2.5836
    -2.5822  -2.5743  -2.5459  -2.5413  -2.5201  -2.5140  -2.4883  -2.4703
    -2.4615  -2.4500  -2.4063  -2.3992  -2.3878  -2.3619  -2.3498  -2.3412
    -2.3154  -2.2862  -2.2668  -2.2518  -2.2292  -2.2281  -2.2174  -2.2013
    -2.1857  -2.1706  -2.1656  -2.1507  -2.1284  -2.1128  -2.1016  -2.0868
    -2.0740  -2.0560  -2.0492  -2.0380  -2.0283  -2.0048  -1.9791  -1.9686
    -1.9302  -1.9246  -1.9127  -1.9067  -1.8957  -1.8943  -1.8648  -1.8577
    -1.8413  -1.8355  -1.8332  -1.8103  -1.7942  -1.7756  -1.7741  -1.7664
    -1.7606  -1.7443  -1.7290  -1.7145  -1.7079  -1.6868  -1.6843  -1.6496
    -1.6414  -1.6049  -1.6016  -1.5854  -1.5811  -1.5742  -1.5674  -1.5463
    -1.5209  -1.5104  -1.4644  -1.4581  -1.4382  -1.4377  -1.4216  -1.4146
    -1.3866  -1.3687  -1.3610  -1.3464  -1.3427  -1.3254  -1.3051  -1.3029
    -1.2914  -1.2701  -1.2659  -1.2482  -1.2222  -1.2195  -1.2111  -1.1984
    -1.1856  -1.1802  -1.1597  -1.1404  -1.1247  -1.0943  -1.0705  -1.0622
    -1.0519  -1.0452  -1.0401  -1.0314  -1.0027  -0.9931  -0.9897  -0.9817
    -0.9767  -0.9579  -0.9491  -0.9405  -0.9325  -0.9145  -0.9115  -0.8885
    -0.8817  -0.8697  -0.8577  -0.8390  -0.8181  -0.7988  -0.7266  -0.6618
    -0.5282  -0.4624  -0.4311  -0.3454  -0.3099  -0.0098   0.0421   0.1183
     0.1654   0.2006   0.2808   0.4508   0.5031   0.8627   1.0111   1.1455
     1.2590   1.5055   1.5737   1.6377   1.6793   2.0021   2.1542

          k =-0.0640 0.0392 0.0000 ( 36040 PWs)   bands (ev):

   -17.1551 -11.9770  -7.0360  -6.9657  -6.6313  -6.4225  -6.3745  -6.2860
    -6.2704  -5.9437  -5.8312  -5.5596  -5.3761  -5.2720  -5.2418  -4.7760
    -4.4616  -4.2493  -4.2029  -4.0242  -3.8748  -3.8570  -3.7127  -3.7056
    -3.6713  -3.6574  -3.6309  -3.6229  -3.5591  -3.5391  -3.5161  -3.4759
    -3.3886  -3.3624  -3.3276  -3.3057  -3.2776  -3.2632  -3.2244  -3.2035
    -3.1776  -3.1527  -3.1416  -3.1041  -3.0718  -3.0174  -2.9487  -2.9319
    -2.9111  -2.8932  -2.8807  -2.8569  -2.8327  -2.8115  -2.7875  -2.7706
    -2.7588  -2.7355  -2.6924  -2.6784  -2.6690  -2.6157  -2.5972  -2.5894
    -2.5746  -2.5617  -2.5527  -2.5284  -2.5136  -2.4984  -2.4534  -2.4289
    -2.4265  -2.4127  -2.4045  -2.3882  -2.3697  -2.3515  -2.3397  -2.3115
    -2.2973  -2.2684  -2.2314  -2.2086  -2.1979  -2.1950  -2.1830  -2.1766
    -2.1674  -2.1516  -2.1487  -2.1315  -2.1292  -2.1077  -2.1032  -2.0807
    -2.0658  -2.0525  -2.0352  -2.0103  -2.0063  -1.9955  -1.9848  -1.9731
    -1.9648  -1.9440  -1.9351  -1.9129  -1.9082  -1.8923  -1.8841  -1.8535
    -1.8505  -1.8312  -1.7981  -1.7863  -1.7770  -1.7651  -1.7564  -1.7407
    -1.7277  -1.7132  -1.6952  -1.6741  -1.6505  -1.6313  -1.6157  -1.6053
    -1.5955  -1.5860  -1.5733  -1.5697  -1.5535  -1.5509  -1.5373  -1.5138
    -1.5090  -1.4955  -1.4849  -1.4703  -1.4592  -1.4421  -1.4301  -1.4175
    -1.3849  -1.3734  -1.3635  -1.3470  -1.3263  -1.3141  -1.2985  -1.2861
    -1.2715  -1.2610  -1.2507  -1.2363  -1.2265  -1.2203  -1.2165  -1.2075
    -1.1784  -1.1607  -1.1418  -1.1396  -1.1160  -1.1116  -1.1037  -1.0851
    -1.0556  -1.0535  -1.0392  -1.0325  -1.0060  -0.9916  -0.9757  -0.9649
    -0.9610  -0.9551  -0.9300  -0.9229  -0.9195  -0.9055  -0.8992  -0.8920
    -0.8809  -0.8752  -0.8650  -0.8494  -0.8401  -0.8368  -0.8172  -0.8101
    -0.7376  -0.6828  -0.6637  -0.5088  -0.4601  -0.1802  -0.0936   0.3185
     0.3968   0.4431   0.4956   0.7870   0.8090   0.8349   0.9406   1.0697
     1.4013   1.6089   1.6690   1.6818   1.7946   1.8973   1.9272

          k =-0.0640-0.0784 0.0000 ( 36100 PWs)   bands (ev):

   -17.1550 -11.9764  -6.7057  -6.4441  -6.4297  -6.3677  -6.3582  -6.2839
    -6.2563  -6.2125  -6.2037  -5.6071  -5.4408  -5.3939  -5.2415  -5.2200
    -5.0824  -4.3459  -4.0538  -4.0109  -3.9931  -3.9618  -3.9357  -3.8302
    -3.6464  -3.6278  -3.5950  -3.5645  -3.5610  -3.5421  -3.5297  -3.4919
    -3.4220  -3.4028  -3.3154  -3.2709  -3.2396  -3.2268  -3.1889  -3.1451
    -3.1385  -3.1034  -3.0898  -3.0734  -3.0514  -3.0380  -3.0186  -2.9920
    -2.9690  -2.9408  -2.9150  -2.8565  -2.8353  -2.7748  -2.7456  -2.6996
    -2.6790  -2.6637  -2.6537  -2.6468  -2.6369  -2.6355  -2.6325  -2.6187
    -2.6013  -2.5979  -2.5902  -2.5649  -2.5084  -2.4806  -2.4122  -2.4070
    -2.3885  -2.3802  -2.3338  -2.3232  -2.3134  -2.3028  -2.2884  -2.2735
    -2.2627  -2.2438  -2.2227  -2.2140  -2.1953  -2.1711  -2.1654  -2.1507
    -2.1469  -2.1456  -2.1338  -2.1288  -2.1134  -2.0934  -2.0809  -2.0632
    -2.0472  -2.0274  -2.0109  -2.0011  -1.9902  -1.9843  -1.9767  -1.9606
    -1.9513  -1.9478  -1.9303  -1.9279  -1.9124  -1.9000  -1.8908  -1.8827
    -1.8669  -1.8513  -1.8280  -1.8217  -1.7969  -1.7679  -1.7434  -1.7395
    -1.7252  -1.7128  -1.6986  -1.6929  -1.6899  -1.6765  -1.6733  -1.6445
    -1.6319  -1.6196  -1.6051  -1.5807  -1.5701  -1.5544  -1.5340  -1.5203
    -1.4812  -1.4534  -1.4364  -1.4341  -1.4217  -1.3973  -1.3759  -1.3726
    -1.3591  -1.3240  -1.3133  -1.3039  -1.2904  -1.2750  -1.2662  -1.2586
    -1.2508  -1.2408  -1.2204  -1.2056  -1.1950  -1.1839  -1.1695  -1.1616
    -1.1513  -1.1471  -1.1328  -1.1305  -1.1082  -1.0777  -1.0771  -1.0644
    -1.0387  -1.0313  -1.0243  -1.0170  -1.0042  -0.9865  -0.9811  -0.9710
    -0.9660  -0.9563  -0.9368  -0.9300  -0.9224  -0.9172  -0.9045  -0.8892
    -0.8849  -0.8620  -0.8563  -0.8425  -0.8375  -0.8266  -0.8090  -0.7941
    -0.7911  -0.7600  -0.7444  -0.7179  -0.7072  -0.4742  -0.4289   0.2703
     0.3468   0.4853   0.5433   0.7074   0.8296   0.8558   0.8994   1.0900
     1.2440   1.3286   1.6774   1.9887   2.0243   2.0734   2.0921

     the Fermi energy is     0.7465 ev

!    total energy              =   -4329.95127321 Ry
     Harris-Foulkes estimate   =   -4329.95127765 Ry
     estimated scf accuracy    <       0.00000533 Ry

     The total energy is the sum of the following terms:

     one-electron contribution =  -48396.81103809 Ry
     hartree contribution      =   24629.65637774 Ry
     xc contribution           =   -1494.58763132 Ry
     ewald contribution        =   20931.79143364 Ry
     electric field correction =       0.00000869 Ry
     smearing contrib. (-TS)   =      -0.00042388 Ry

     convergence has been achieved in   9 iterations

     Forces acting on atoms (Ry/au):


     negative rho (up, down):  3.472E-03 0.000E+00
     atom    1 type  1   force =    -0.00552964    0.00529623   -0.00700932
     atom    2 type  2   force =     0.00286245   -0.00117360    0.01674156
     atom    3 type  2   force =    -0.00333635   -0.00009790   -0.00394662
     atom    4 type  2   force =     0.00028149    0.00329895    0.00140674
     atom    5 type  2   force =    -0.00163406    0.00015045   -0.00041457
     atom    6 type  2   force =    -0.00097886   -0.00001448   -0.00171006
     atom    7 type  2   force =     0.00039004    0.00178416   -0.00271362
     atom    8 type  2   force =    -0.00024635   -0.00005607    0.00114623
     atom    9 type  2   force =    -0.00004102   -0.00011624   -0.00091159
     atom   10 type  2   force =     0.00060179    0.00073374    0.00064698
     atom   11 type  2   force =    -0.00311811   -0.00000633    0.00043313
     atom   12 type  2   force =    -0.00071640    0.00009680   -0.00234886
     atom   13 type  2   force =     0.00044200    0.00101404    0.00045185
     atom   14 type  2   force =    -0.00024602   -0.00042106    0.00055456
     atom   15 type  2   force =    -0.00050995   -0.00004204    0.00040495
     atom   16 type  2   force =     0.00021730    0.00011571    0.00037773
     atom   17 type  2   force =     0.00008996   -0.00024174    0.00088841
     atom   18 type  2   force =    -0.00015054    0.00063980   -0.00028742
     atom   19 type  2   force =     0.00087572    0.00184791    0.00141961
     atom   20 type  2   force =     0.00104560    0.00108989    0.00085128
     atom   21 type  2   force =    -0.00032743    0.00137477    0.00301644
     atom   22 type  2   force =    -0.00008049    0.00296524   -0.00155179
     atom   23 type  2   force =    -0.00145570    0.00250222   -0.00060811
     atom   24 type  2   force =     0.00133896    0.00230246   -0.00130514
     atom   25 type  2   force =     0.00041297   -0.00423632   -0.00645056
     atom   26 type  2   force =     0.00071922   -0.00428666   -0.00674215
     atom   27 type  2   force =    -0.00027085   -0.00361467   -0.00784038
     atom   28 type  2   force =    -0.00045563   -0.00230397   -0.00584803
     atom   29 type  2   force =    -0.00003064   -0.00183492   -0.00470743
     atom   30 type  2   force =     0.00021086   -0.00192177   -0.00433142
     atom   31 type  2   force =     0.00047118   -0.00191206    0.00168813
     atom   32 type  2   force =    -0.00011622   -0.00229818    0.00229935
     atom   33 type  2   force =    -0.00011102   -0.00275907    0.00235808
     atom   34 type  2   force =    -0.00036951    0.00315215    0.01330254
     atom   35 type  2   force =     0.00078964    0.00413269    0.01293904
     atom   36 type  2   force =    -0.00040193    0.00417956    0.01190059
     atom   37 type  3   force =    -0.01406838   -0.00916330    0.00147816
     atom   38 type  4   force =     0.00111271   -0.00138755   -0.01604987
     atom   39 type  5   force =     0.00370318    0.00903788   -0.00379466
     atom   40 type  5   force =     0.00320487   -0.00371056    0.00432570
     atom   41 type  5   force =     0.01542515   -0.00411617   -0.00005945

     Total force =     0.048248     Total SCF correction =     0.012991
     SCF correction compared to forces is large: reduce conv_thr to get better values
 !ASE
