  46  46   0   0
  0.2022614E+02  0.7654997E-09  0.7654997E-09  0.1833370E-08  0.4000000E-15
  1.000000000000000E-004
  CAR 
 unknown system                          
      8.06281883    -10.04387484  301      0.06399491      1.00000000
    -10.044  0.0000E+00  0.0000E+00
     -9.984  0.0000E+00  0.0000E+00
     -9.923  0.0000E+00  0.0000E+00
     -9.863 -0.2001E-31 -0.1208E-32
     -9.802 -0.2644E-27 -0.1596E-28
     -9.742 -0.1693E-23 -0.1022E-24
     -9.682 -0.5256E-20 -0.3173E-21
     -9.621 -0.7753E-17 -0.4683E-18
     -9.561 -0.5577E-14 -0.3371E-15
     -9.501 -0.1956E-11 -0.1184E-12
     -9.440 -0.3302E-09 -0.2005E-10
     -9.380 -0.2669E-07 -0.1631E-08
     -9.320 -0.1020E-05 -0.6317E-07
     -9.259 -0.1795E-04 -0.1146E-05
     -9.199 -0.1355E-03 -0.9323E-05
     -9.139 -0.3141E-03 -0.2828E-04
     -9.078  0.7632E-03  0.1778E-04
     -9.018  0.4717E-02  0.3025E-03
     -8.957  0.8984E-02  0.8447E-03
     -8.897  0.1047E-01  0.1477E-02
     -8.837  0.1027E-01  0.2096E-02
     -8.776  0.1043E-01  0.2726E-02
     -8.716  0.1006E-01  0.3334E-02
     -8.656  0.1020E-01  0.3949E-02
     -8.595  0.1105E-01  0.4616E-02
     -8.535  0.9396E-02  0.5183E-02
     -8.475  0.1046E-01  0.5815E-02
     -8.414  0.1197E-01  0.6537E-02
     -8.354  0.9079E-02  0.7085E-02
     -8.294  0.9331E-02  0.7648E-02
     -8.233  0.1267E-01  0.8413E-02
     -8.173  0.1180E-01  0.9125E-02
     -8.112  0.1275E-01  0.9895E-02
     -8.052  0.1996E-01  0.1110E-01
     -7.992  0.2505E-01  0.1261E-01
     -7.931  0.2149E-01  0.1391E-01
     -7.871  0.1840E-01  0.1502E-01
     -7.811  0.2077E-01  0.1627E-01
     -7.750  0.2578E-01  0.1783E-01
     -7.690  0.2424E-01  0.1929E-01
     -7.630  0.1740E-01  0.2034E-01
     -7.569  0.1979E-01  0.2154E-01
     -7.509  0.2499E-01  0.2305E-01
     -7.449  0.2459E-01  0.2453E-01
     -7.388  0.2501E-01  0.2604E-01
     -7.328  0.2076E-01  0.2729E-01
     -7.268  0.1658E-01  0.2829E-01
     -7.207  0.2481E-01  0.2979E-01
     -7.147  0.2925E-01  0.3156E-01
     -7.086  0.2379E-01  0.3299E-01
     -7.026  0.1885E-01  0.3413E-01
     -6.966  0.2255E-01  0.3549E-01
     -6.905  0.3778E-01  0.3777E-01
     -6.845  0.4492E-01  0.4048E-01
     -6.785  0.3919E-01  0.4285E-01
     -6.724  0.3786E-01  0.4513E-01
     -6.664  0.3311E-01  0.4713E-01
     -6.604  0.2668E-01  0.4874E-01
     -6.543  0.3718E-01  0.5099E-01
     -6.483  0.4995E-01  0.5400E-01
     -6.423  0.4327E-01  0.5661E-01
     -6.362  0.3518E-01  0.5873E-01
     -6.302  0.4105E-01  0.6121E-01
     -6.241  0.4229E-01  0.6376E-01
     -6.181  0.3762E-01  0.6604E-01
     -6.121  0.3810E-01  0.6833E-01
     -6.060  0.3876E-01  0.7067E-01
     -6.000  0.4072E-01  0.7313E-01
     -5.940  0.5446E-01  0.7642E-01
     -5.879  0.7097E-01  0.8070E-01
     -5.819  0.6789E-01  0.8480E-01
     -5.759  0.4885E-01  0.8775E-01
     -5.698  0.3576E-01  0.8991E-01
     -5.638  0.3993E-01  0.9232E-01
     -5.578  0.5348E-01  0.9554E-01
     -5.517  0.6544E-01  0.9949E-01
     -5.457  0.6746E-01  0.1036E+00
     -5.396  0.5920E-01  0.1071E+00
     -5.336  0.6052E-01  0.1108E+00
     -5.276  0.8465E-01  0.1159E+00
     -5.215  0.1025E+00  0.1221E+00
     -5.155  0.8748E-01  0.1274E+00
     -5.095  0.7521E-01  0.1319E+00
     -5.034  0.1071E+00  0.1384E+00
     -4.974  0.1487E+00  0.1473E+00
     -4.914  0.1549E+00  0.1567E+00
     -4.853  0.1676E+00  0.1668E+00
     -4.793  0.2018E+00  0.1790E+00
     -4.733  0.2229E+00  0.1924E+00
     -4.672  0.2260E+00  0.2061E+00
     -4.612  0.2330E+00  0.2201E+00
     -4.552  0.2428E+00  0.2348E+00
     -4.491  0.2232E+00  0.2483E+00
     -4.431  0.2028E+00  0.2605E+00
     -4.370  0.2509E+00  0.2757E+00
     -4.310  0.3599E+00  0.2974E+00
     -4.250  0.4354E+00  0.3237E+00
     -4.189  0.4686E+00  0.3519E+00
     -4.129  0.4997E+00  0.3821E+00
     -4.069  0.4855E+00  0.4114E+00
     -4.008  0.4416E+00  0.4380E+00
     -3.948  0.4312E+00  0.4641E+00
     -3.888  0.4202E+00  0.4894E+00
     -3.827  0.3896E+00  0.5129E+00
     -3.767  0.4004E+00  0.5371E+00
     -3.707  0.4147E+00  0.5621E+00
     -3.646  0.3834E+00  0.5853E+00
     -3.586  0.3897E+00  0.6088E+00
     -3.525  0.5288E+00  0.6407E+00
     -3.465  0.6410E+00  0.6794E+00
     -3.405  0.5906E+00  0.7151E+00
     -3.344  0.5245E+00  0.7467E+00
     -3.284  0.5209E+00  0.7781E+00
     -3.224  0.5614E+00  0.8120E+00
     -3.163  0.6102E+00  0.8489E+00
     -3.103  0.6240E+00  0.8865E+00
     -3.043  0.6370E+00  0.9250E+00
     -2.982  0.7355E+00  0.9694E+00
     -2.922  0.9340E+00  0.1026E+01
     -2.862  0.1020E+01  0.1087E+01
     -2.801  0.9678E+00  0.1146E+01
     -2.741  0.9196E+00  0.1201E+01
     -2.680  0.8958E+00  0.1255E+01
     -2.620  0.8552E+00  0.1307E+01
     -2.560  0.7918E+00  0.1355E+01
     -2.499  0.7689E+00  0.1401E+01
     -2.439  0.7515E+00  0.1446E+01
     -2.379  0.6949E+00  0.1488E+01
     -2.318  0.6405E+00  0.1527E+01
     -2.258  0.7064E+00  0.1570E+01
     -2.198  0.8008E+00  0.1618E+01
     -2.137  0.8210E+00  0.1668E+01
     -2.077  0.8283E+00  0.1718E+01
     -2.017  0.8182E+00  0.1767E+01
     -1.956  0.8191E+00  0.1816E+01
     -1.896  0.8536E+00  0.1868E+01
     -1.836  0.8702E+00  0.1920E+01
     -1.775  0.8943E+00  0.1974E+01
     -1.715  0.9854E+00  0.2034E+01
     -1.654  0.1136E+01  0.2102E+01
     -1.594  0.1245E+01  0.2178E+01
     -1.534  0.1108E+01  0.2244E+01
     -1.473  0.7255E+00  0.2288E+01
     -1.413  0.3698E+00  0.2311E+01
     -1.353  0.2028E+00  0.2323E+01
     -1.292  0.1442E+00  0.2332E+01
     -1.232  0.1107E+00  0.2338E+01
     -1.172  0.1127E+00  0.2345E+01
     -1.111  0.1311E+00  0.2353E+01
     -1.051  0.1282E+00  0.2361E+01
     -0.991  0.1232E+00  0.2368E+01
     -0.930  0.1364E+00  0.2376E+01
     -0.870  0.1373E+00  0.2385E+01
     -0.809  0.1236E+00  0.2392E+01
     -0.749  0.1182E+00  0.2399E+01
     -0.689  0.1182E+00  0.2406E+01
     -0.628  0.1152E+00  0.2413E+01
     -0.568  0.1011E+00  0.2419E+01
     -0.508  0.8261E-01  0.2424E+01
     -0.447  0.6582E-01  0.2428E+01
     -0.387  0.7172E-01  0.2433E+01
     -0.327  0.1008E+00  0.2439E+01
     -0.266  0.1080E+00  0.2445E+01
     -0.206  0.8521E-01  0.2450E+01
     -0.146  0.6150E-01  0.2454E+01
     -0.085  0.5821E-01  0.2458E+01
     -0.025  0.7176E-01  0.2462E+01
      0.036  0.8771E-01  0.2467E+01
      0.096  0.9727E-01  0.2473E+01
      0.156  0.9210E-01  0.2479E+01
      0.217  0.7396E-01  0.2483E+01
      0.277  0.5867E-01  0.2487E+01
      0.337  0.5255E-01  0.2490E+01
      0.398  0.5154E-01  0.2493E+01
      0.458  0.6557E-01  0.2497E+01
      0.518  0.8990E-01  0.2502E+01
      0.579  0.9877E-01  0.2508E+01
      0.639  0.8193E-01  0.2513E+01
      0.699  0.6432E-01  0.2517E+01
      0.760  0.6227E-01  0.2521E+01
      0.820  0.5805E-01  0.2524E+01
      0.880  0.4750E-01  0.2527E+01
      0.941  0.4909E-01  0.2530E+01
      1.001  0.6779E-01  0.2534E+01
      1.062  0.9329E-01  0.2540E+01
      1.122  0.1037E+00  0.2546E+01
      1.182  0.8589E-01  0.2551E+01
      1.243  0.5632E-01  0.2555E+01
      1.303  0.4263E-01  0.2557E+01
      1.363  0.4568E-01  0.2560E+01
      1.424  0.5296E-01  0.2563E+01
      1.484  0.6517E-01  0.2567E+01
      1.544  0.7988E-01  0.2572E+01
      1.605  0.8961E-01  0.2577E+01
      1.665  0.8569E-01  0.2583E+01
      1.725  0.7249E-01  0.2587E+01
      1.786  0.6473E-01  0.2591E+01
      1.846  0.6328E-01  0.2595E+01
      1.907  0.6067E-01  0.2598E+01
      1.967  0.6034E-01  0.2602E+01
      2.027  0.6814E-01  0.2606E+01
      2.088  0.7120E-01  0.2610E+01
      2.148  0.6929E-01  0.2615E+01
      2.208  0.6704E-01  0.2619E+01
      2.269  0.6569E-01  0.2623E+01
      2.329  0.6388E-01  0.2627E+01
      2.389  0.6111E-01  0.2630E+01
      2.450  0.6607E-01  0.2634E+01
      2.510  0.6077E-01  0.2638E+01
      2.570  0.4037E-01  0.2640E+01
      2.631  0.4112E-01  0.2643E+01
      2.691  0.6333E-01  0.2647E+01
      2.752  0.6278E-01  0.2650E+01
      2.812  0.5451E-01  0.2654E+01
      2.872  0.6393E-01  0.2658E+01
      2.933  0.6833E-01  0.2662E+01
      2.993  0.5423E-01  0.2665E+01
      3.053  0.4538E-01  0.2668E+01
      3.114  0.5343E-01  0.2671E+01
      3.174  0.6252E-01  0.2675E+01
      3.234  0.6339E-01  0.2679E+01
      3.295  0.5790E-01  0.2682E+01
      3.355  0.5316E-01  0.2685E+01
      3.415  0.4656E-01  0.2688E+01
      3.476  0.4222E-01  0.2691E+01
      3.536  0.5134E-01  0.2694E+01
      3.597  0.6028E-01  0.2697E+01
      3.657  0.5677E-01  0.2701E+01
      3.717  0.4853E-01  0.2704E+01
      3.778  0.4278E-01  0.2706E+01
      3.838  0.4289E-01  0.2709E+01
      3.898  0.5065E-01  0.2712E+01
      3.959  0.5617E-01  0.2715E+01
      4.019  0.4946E-01  0.2718E+01
      4.079  0.3912E-01  0.2721E+01
      4.140  0.3896E-01  0.2723E+01
      4.200  0.4829E-01  0.2726E+01
      4.260  0.6068E-01  0.2730E+01
      4.321  0.7381E-01  0.2734E+01
      4.381  0.7448E-01  0.2739E+01
      4.441  0.6332E-01  0.2742E+01
      4.502  0.6350E-01  0.2746E+01
      4.562  0.7114E-01  0.2750E+01
      4.623  0.6851E-01  0.2755E+01
      4.683  0.6507E-01  0.2759E+01
      4.743  0.6590E-01  0.2762E+01
      4.804  0.6816E-01  0.2767E+01
      4.864  0.6753E-01  0.2771E+01
      4.924  0.6009E-01  0.2774E+01
      4.985  0.5521E-01  0.2778E+01
      5.045  0.5920E-01  0.2781E+01
      5.105  0.7353E-01  0.2786E+01
      5.166  0.8362E-01  0.2791E+01
      5.226  0.9271E-01  0.2796E+01
      5.286  0.1001E+00  0.2802E+01
      5.347  0.8900E-01  0.2808E+01
      5.407  0.8378E-01  0.2813E+01
      5.468  0.9211E-01  0.2818E+01
      5.528  0.8789E-01  0.2824E+01
      5.588  0.8474E-01  0.2829E+01
      5.649  0.9155E-01  0.2834E+01
      5.709  0.9217E-01  0.2840E+01
      5.769  0.8762E-01  0.2845E+01
      5.830  0.8798E-01  0.2850E+01
      5.890  0.9402E-01  0.2856E+01
      5.950  0.1051E+00  0.2862E+01
      6.011  0.1171E+00  0.2870E+01
      6.071  0.1154E+00  0.2876E+01
      6.131  0.1013E+00  0.2883E+01
      6.192  0.1009E+00  0.2889E+01
      6.252  0.1089E+00  0.2895E+01
      6.313  0.1107E+00  0.2902E+01
      6.373  0.1052E+00  0.2908E+01
      6.433  0.9227E-01  0.2914E+01
      6.494  0.9071E-01  0.2919E+01
      6.554  0.9753E-01  0.2925E+01
      6.614  0.9729E-01  0.2931E+01
      6.675  0.9288E-01  0.2937E+01
      6.735  0.9188E-01  0.2942E+01
      6.795  0.9518E-01  0.2948E+01
      6.856  0.8713E-01  0.2953E+01
      6.916  0.6248E-01  0.2957E+01
      6.976  0.3400E-01  0.2959E+01
      7.037  0.1297E-01  0.2960E+01
      7.097  0.2954E-02  0.2960E+01
      7.157 -0.1789E-04  0.2960E+01
      7.218 -0.3680E-03  0.2960E+01
      7.278 -0.1384E-03  0.2960E+01
      7.339 -0.2066E-04  0.2960E+01
      7.399 -0.1361E-05  0.2960E+01
      7.459 -0.4096E-07  0.2960E+01
      7.520 -0.5738E-09  0.2960E+01
      7.580 -0.3782E-11  0.2960E+01
      7.640 -0.1182E-13  0.2960E+01
      7.701 -0.1742E-16  0.2960E+01
      7.761  0.0000E+00  0.2960E+01
      7.821  0.0000E+00  0.2960E+01
      7.882  0.0000E+00  0.2960E+01
      7.942  0.0000E+00  0.2960E+01
      8.002  0.0000E+00  0.2960E+01
      8.063  0.0000E+00  0.2960E+01
