       N       E                     dE             d eps       ncg     rms          rms(c)
DAV:   1     0.394499008795E+04    0.39450E+04   -0.19050E+05 50320   0.183E+03
DAV:   2     0.370294193533E+03   -0.35747E+04   -0.34128E+04 50320   0.432E+02
DAV:   3    -0.818989725233E+02   -0.45219E+03   -0.41220E+03 50360   0.179E+02
DAV:   4    -0.103116412724E+03   -0.21217E+02   -0.20825E+02 53912   0.447E+01
DAV:   5    -0.103334824167E+03   -0.21841E+00   -0.21788E+00 53832   0.418E+00
DAV:   6    -0.103339407607E+03   -0.45834E-02   -0.45831E-02 73128   0.435E-01
DAV:   7    -0.103339471134E+03   -0.63527E-04   -0.63526E-04 56168   0.408E-02
DAV:   8    -0.103339473633E+03   -0.24992E-05   -0.24994E-05 74768   0.736E-03
DAV:   9    -0.103339473689E+03   -0.55930E-07   -0.55944E-07 37984   0.828E-04
DAV:  10    -0.103339473692E+03   -0.24229E-08   -0.24981E-08 31936   0.247E-04    0.463E+01
RMM:  11    -0.107118758926E+03   -0.37793E+01   -0.45716E+02 50383   0.770E+01    0.416E+01
RMM:  12    -0.137103091125E+03   -0.29984E+02   -0.16973E+02 50320   0.347E+01    0.442E+01
RMM:  13    -0.895166553435E+02    0.47586E+02   -0.28425E+01 50404   0.150E+01    0.230E+01
RMM:  14    -0.709718122677E+02    0.18545E+02   -0.12950E+01 50452   0.106E+01    0.117E+01
RMM:  15    -0.684926027537E+02    0.24792E+01   -0.23606E+00 50461   0.431E+00    0.846E+00
RMM:  16    -0.661065745808E+02    0.23860E+01   -0.29349E+00 50565   0.388E+00    0.280E+00
RMM:  17    -0.659511369804E+02    0.15544E+00   -0.15224E-01 50564   0.979E-01    0.204E+00
RMM:  18    -0.659103820230E+02    0.40755E-01   -0.18439E-01 50641   0.133E+00    0.208E+00
RMM:  19    -0.658148659349E+02    0.95516E-01   -0.12732E-01 50505   0.967E-01    0.559E-01
RMM:  20    -0.658080710224E+02    0.67949E-02   -0.99428E-03 50757   0.296E-01    0.306E-01
RMM:  21    -0.658036781948E+02    0.43928E-02   -0.11254E-02 50578   0.305E-01    0.208E-01
RMM:  22    -0.658009906423E+02    0.26876E-02   -0.18486E-03 50599   0.144E-01    0.713E-02
RMM:  23    -0.657980754410E+02    0.29152E-02   -0.66764E-04 50487   0.629E-02    0.705E-02
RMM:  24    -0.657958719584E+02    0.22035E-02   -0.45058E-04 50537   0.568E-02    0.498E-02
RMM:  25    -0.657948156138E+02    0.10563E-02   -0.23327E-04 50608   0.422E-02    0.338E-02
RMM:  26    -0.657948826542E+02   -0.67040E-04   -0.14485E-04 50464   0.190E-02    0.201E-02
RMM:  27    -0.657953134595E+02   -0.43081E-03   -0.65273E-05 50581   0.190E-02    0.142E-02
RMM:  28    -0.657956832572E+02   -0.36980E-03   -0.49970E-05 50427   0.126E-02    0.130E-02
RMM:  29    -0.657958524573E+02   -0.16920E-03   -0.42696E-05 50423   0.880E-03    0.800E-03
RMM:  30    -0.657958694966E+02   -0.17039E-04   -0.44927E-06 49836   0.340E-03    0.463E-03
RMM:  31    -0.657958748482E+02   -0.53516E-05   -0.18235E-06 43812   0.226E-03    0.234E-03
RMM:  32    -0.657958761936E+02   -0.13455E-05   -0.72940E-07 33324   0.140E-03    0.595E-04
RMM:  33    -0.657958763280E+02   -0.13437E-06   -0.62533E-08 29302   0.581E-04    0.433E-04
RMM:  34    -0.657958764137E+02   -0.85696E-07   -0.36351E-08 29070   0.391E-04
   1 F= -.65795876E+02 E0= -.65793508E+02  d E =-.657959E+02
       N       E                     dE             d eps       ncg     rms          rms(c)
DAV:   1    -0.657976662413E+02   -0.17899E-02   -0.44224E-01 51672   0.132E+00    0.519E-02
RMM:   2    -0.657979834296E+02   -0.31719E-03   -0.35055E-03 50640   0.187E-01    0.416E-02
RMM:   3    -0.657981003157E+02   -0.11689E-03   -0.57400E-04 63363   0.374E-02    0.597E-02
RMM:   4    -0.657979898127E+02    0.11050E-03   -0.41780E-05 51092   0.159E-02    0.284E-02
RMM:   5    -0.657979826654E+02    0.71473E-05   -0.25049E-05 50649   0.137E-02    0.225E-02
RMM:   6    -0.657979769659E+02    0.56994E-05   -0.52317E-05 50415   0.139E-02    0.189E-02
RMM:   7    -0.657979733862E+02    0.35797E-05   -0.29385E-05 51365   0.120E-02    0.748E-03
RMM:   8    -0.657979716168E+02    0.17695E-05   -0.23766E-06 50223   0.332E-03    0.476E-03
RMM:   9    -0.657979709827E+02    0.63403E-06   -0.11340E-06 36494   0.165E-03    0.245E-03
RMM:  10    -0.657979708385E+02    0.14423E-06   -0.58700E-07 31577   0.126E-03    0.114E-03
RMM:  11    -0.657979707814E+02    0.57073E-07   -0.30638E-07 30691   0.116E-03
   2 F= -.65797971E+02 E0= -.65795593E+02  d E =-.209437E-02
       N       E                     dE             d eps       ncg     rms          rms(c)
DAV:   1    -0.657987721470E+02   -0.80131E-03   -0.12458E+00 50800   0.222E+00    0.873E-02
RMM:   2    -0.657996663399E+02   -0.89419E-03   -0.98885E-03 50639   0.315E-01    0.710E-02
RMM:   3    -0.657999847952E+02   -0.31846E-03   -0.16247E-03 63378   0.632E-02    0.991E-02
RMM:   4    -0.657996784389E+02    0.30636E-03   -0.11724E-04 51094   0.267E-02    0.479E-02
RMM:   5    -0.657996571534E+02    0.21286E-04   -0.70590E-05 50653   0.230E-02    0.380E-02
RMM:   6    -0.657996396445E+02    0.17509E-04   -0.14840E-04 50457   0.237E-02    0.322E-02
RMM:   7    -0.657996284327E+02    0.11212E-04   -0.83220E-05 51343   0.203E-02    0.125E-02
RMM:   8    -0.657996234260E+02    0.50067E-05   -0.67291E-06 50427   0.579E-03    0.803E-03
RMM:   9    -0.657996215742E+02    0.18518E-05   -0.33078E-06 48878   0.279E-03    0.407E-03
RMM:  10    -0.657996211957E+02    0.37845E-06   -0.16755E-06 38721   0.177E-03    0.172E-03
RMM:  11    -0.657996210946E+02    0.10116E-06   -0.72267E-07 36016   0.160E-03    0.636E-04
RMM:  12    -0.657996211060E+02   -0.11445E-07   -0.11906E-07 27442   0.103E-03
   3 F= -.65799621E+02 E0= -.65797229E+02  d E =-.374469E-02
       N       E                     dE             d eps       ncg     rms          rms(c)
DAV:   1    -0.657996339967E+02   -0.12902E-04   -0.44692E-02 51632   0.420E-01    0.164E-02
RMM:   2    -0.657996668244E+02   -0.32828E-04   -0.35296E-04 50643   0.595E-02    0.130E-02
RMM:   3    -0.657996788558E+02   -0.12031E-04   -0.57987E-05 63818   0.119E-02    0.189E-02
RMM:   4    -0.657996680180E+02    0.10838E-04   -0.40888E-06 50895   0.501E-03    0.905E-03
RMM:   5    -0.657996674973E+02    0.52071E-06   -0.25988E-06 50330   0.446E-03    0.723E-03
RMM:   6    -0.657996673055E+02    0.19183E-06   -0.56119E-06 50349   0.443E-03    0.587E-03
RMM:   7    -0.657996671251E+02    0.18039E-06   -0.28270E-06 50981   0.371E-03    0.245E-03
RMM:   8    -0.657996669605E+02    0.16461E-06   -0.22085E-07 30020   0.998E-04    0.151E-03
RMM:   9    -0.657996669070E+02    0.53478E-07   -0.11922E-07 27570   0.761E-04
   4 F= -.65799667E+02 E0= -.65797272E+02  d E =-.379049E-02
       N       E                     dE             d eps       ncg     rms          rms(c)
DAV:   1    -0.658005747422E+02   -0.90778E-03   -0.28600E-01 50528   0.108E+00    0.374E-02
RMM:   2    -0.658006621806E+02   -0.87438E-04   -0.10663E-03 50583   0.115E-01    0.365E-02
RMM:   3    -0.658006744906E+02   -0.12310E-04   -0.10331E-04 52552   0.230E-02    0.331E-02
RMM:   4    -0.658006515224E+02    0.22968E-04   -0.33027E-05 50773   0.153E-02    0.235E-02
RMM:   5    -0.658006351752E+02    0.16347E-04   -0.20268E-05 50637   0.125E-02    0.811E-03
RMM:   6    -0.658006360925E+02   -0.91730E-06   -0.97580E-06 50488   0.845E-03    0.925E-03
RMM:   7    -0.658006347307E+02    0.13618E-05   -0.34060E-06 50330   0.481E-03    0.221E-03
RMM:   8    -0.658006345409E+02    0.18976E-06   -0.38652E-07 31012   0.148E-03    0.136E-03
RMM:   9    -0.658006345497E+02   -0.87821E-08   -0.15969E-07 27966   0.141E-03
   5 F= -.65800635E+02 E0= -.65798229E+02  d E =-.967643E-03
       N       E                     dE             d eps       ncg     rms          rms(c)
DAV:   1    -0.658015894350E+02   -0.95489E-03   -0.81481E-01 50368   0.182E+00    0.633E-02
RMM:   2    -0.658018371216E+02   -0.24769E-03   -0.30559E-03 50583   0.196E-01    0.626E-02
RMM:   3    -0.658018681406E+02   -0.31019E-04   -0.29383E-04 52512   0.391E-02    0.555E-02
RMM:   4    -0.658018014925E+02    0.66648E-04   -0.93713E-05 50799   0.258E-02    0.397E-02
RMM:   5    -0.658017527599E+02    0.48733E-04   -0.57695E-05 50650   0.209E-02    0.138E-02
RMM:   6    -0.658017543918E+02   -0.16319E-05   -0.27773E-05 50575   0.144E-02    0.152E-02
RMM:   7    -0.658017508029E+02    0.35889E-05   -0.95962E-06 50363   0.814E-03    0.397E-03
RMM:   8    -0.658017501097E+02    0.69324E-06   -0.11276E-06 48490   0.243E-03    0.223E-03
RMM:   9    -0.658017500907E+02    0.18990E-07   -0.37503E-07 31836   0.187E-03
   6 F= -.65801750E+02 E0= -.65799326E+02  d E =-.208318E-02
       N       E                     dE             d eps       ncg     rms          rms(c)
DAV:   1    -0.658013941125E+02    0.35600E-03   -0.32601E+00 50320   0.365E+00    0.127E-01
RMM:   2    -0.658023993269E+02   -0.10052E-02   -0.12424E-02 50581   0.395E-01    0.128E-01
RMM:   3    -0.658025049774E+02   -0.10565E-03   -0.11907E-03 52465   0.795E-02    0.110E-01
RMM:   4    -0.658022312678E+02    0.27371E-03   -0.37336E-04 50808   0.511E-02    0.793E-02
RMM:   5    -0.658020298845E+02    0.20138E-03   -0.22971E-04 50650   0.415E-02    0.283E-02
RMM:   6    -0.658020308269E+02   -0.94232E-06   -0.11181E-04 50596   0.292E-02    0.286E-02
RMM:   7    -0.658020190602E+02    0.11767E-04   -0.38492E-05 50540   0.166E-02    0.910E-03
RMM:   8    -0.658020152650E+02    0.37952E-05   -0.46051E-06 50321   0.462E-03    0.449E-03
RMM:   9    -0.658020150782E+02    0.18685E-06   -0.15575E-06 50343   0.369E-03    0.219E-03
RMM:  10    -0.658020152103E+02   -0.13216E-06   -0.26989E-07 30612   0.152E-03    0.802E-04
RMM:  11    -0.658020151881E+02    0.22192E-07   -0.71929E-08 27190   0.868E-04
   7 F= -.65802015E+02 E0= -.65799550E+02  d E =-.234828E-02
       N       E                     dE             d eps       ncg     rms          rms(c)
DAV:   1    -0.658021290493E+02   -0.11384E-03   -0.60975E-01 50384   0.158E+00    0.544E-02
RMM:   2    -0.658022953759E+02   -0.16633E-03   -0.22414E-03 50582   0.167E-01    0.508E-02
RMM:   3    -0.658023264773E+02   -0.31101E-04   -0.21771E-04 52536   0.335E-02    0.492E-02
RMM:   4    -0.658022730202E+02    0.53457E-04   -0.71005E-05 50786   0.224E-02    0.352E-02
RMM:   5    -0.658022294602E+02    0.43560E-04   -0.43920E-05 50654   0.184E-02    0.110E-02
RMM:   6    -0.658022292720E+02    0.18821E-06   -0.19651E-05 50550   0.117E-02    0.138E-02
RMM:   7    -0.658022254847E+02    0.37874E-05   -0.69160E-06 50339   0.689E-03    0.284E-03
RMM:   8    -0.658022251543E+02    0.33037E-06   -0.91269E-07 46010   0.230E-03    0.194E-03
RMM:   9    -0.658022250348E+02    0.11948E-06   -0.24144E-07 29764   0.162E-03    0.757E-04
RMM:  10    -0.658022249702E+02    0.64603E-07   -0.47212E-08 27005   0.718E-04
   8 F= -.65802225E+02 E0= -.65799778E+02  d E =-.255806E-02
       N       E                     dE             d eps       ncg     rms          rms(c)
DAV:   1    -0.658027932160E+02   -0.56818E-03   -0.47583E-01 50384   0.134E+00    0.614E-02
RMM:   2    -0.658032273463E+02   -0.43413E-03   -0.44977E-03 50609   0.167E-01    0.752E-02
RMM:   3    -0.658032855959E+02   -0.58250E-04   -0.97699E-04 64340   0.471E-02    0.593E-02
RMM:   4    -0.658031916535E+02    0.93942E-04   -0.63526E-05 51045   0.197E-02    0.391E-02
RMM:   5    -0.658031648455E+02    0.26808E-04   -0.25128E-05 50647   0.134E-02    0.300E-02
RMM:   6    -0.658031539848E+02    0.10861E-04   -0.81569E-05 50575   0.188E-02    0.247E-02
RMM:   7    -0.658031497240E+02    0.42608E-05   -0.71578E-05 51403   0.179E-02    0.982E-03
RMM:   8    -0.658031476393E+02    0.20847E-05   -0.56623E-06 53857   0.480E-03    0.823E-03
RMM:   9    -0.658031461992E+02    0.14401E-05   -0.13932E-06 48430   0.250E-03    0.571E-03
RMM:  10    -0.658031454805E+02    0.71868E-06   -0.12484E-06 38005   0.171E-03    0.316E-03
RMM:  11    -0.658031451734E+02    0.30709E-06   -0.23354E-06 48197   0.205E-03    0.654E-04
RMM:  12    -0.658031452339E+02   -0.60536E-07   -0.19963E-07 29650   0.897E-04
   9 F= -.65803145E+02 E0= -.65800707E+02  d E =-.920264E-03
       N       E                     dE             d eps       ncg     rms          rms(c)
DAV:   1    -0.658034423238E+02   -0.29715E-03   -0.42519E-01 50400   0.127E+00    0.577E-02
RMM:   2    -0.658038312857E+02   -0.38896E-03   -0.40126E-03 50614   0.157E-01    0.710E-02
RMM:   3    -0.658038819052E+02   -0.50619E-04   -0.87093E-04 64431   0.444E-02    0.559E-02
RMM:   4    -0.658037987783E+02    0.83127E-04   -0.55852E-05 51046   0.185E-02    0.370E-02
RMM:   5    -0.658037754031E+02    0.23375E-04   -0.22126E-05 50646   0.125E-02    0.285E-02
RMM:   6    -0.658037656558E+02    0.97472E-05   -0.74325E-05 50572   0.178E-02    0.235E-02
RMM:   7    -0.658037618950E+02    0.37608E-05   -0.64375E-05 51416   0.170E-02    0.936E-03
RMM:   8    -0.658037600008E+02    0.18942E-05   -0.50604E-06 53824   0.454E-03    0.783E-03
RMM:   9    -0.658037586933E+02    0.13075E-05   -0.12510E-06 46666   0.236E-03    0.544E-03
RMM:  10    -0.658037580471E+02    0.64613E-06   -0.11432E-06 37386   0.166E-03    0.300E-03
RMM:  11    -0.658037577580E+02    0.28918E-06   -0.21041E-06 47180   0.196E-03    0.620E-04
RMM:  12    -0.658037578163E+02   -0.58397E-07   -0.18207E-07 29480   0.877E-04
  10 F= -.65803758E+02 E0= -.65801328E+02  d E =-.153285E-02
       N       E                     dE             d eps       ncg     rms          rms(c)
DAV:   1    -0.658030023352E+02    0.75542E-03   -0.17007E+00 50320   0.254E+00    0.116E-01
RMM:   2    -0.658045756622E+02   -0.15733E-02   -0.16221E-02 50612   0.317E-01    0.146E-01
RMM:   3    -0.658047536874E+02   -0.17803E-03   -0.35186E-03 64242   0.896E-02    0.111E-01
RMM:   4    -0.658044183958E+02    0.33529E-03   -0.22851E-04 51056   0.372E-02    0.741E-02
RMM:   5    -0.658043200940E+02    0.98302E-04   -0.89384E-05 50646   0.251E-02    0.569E-02
RMM:   6    -0.658042754498E+02    0.44644E-04   -0.28973E-04 50573   0.355E-02    0.467E-02
RMM:   7    -0.658042563744E+02    0.19075E-04   -0.25751E-04 51442   0.341E-02    0.185E-02
RMM:   8    -0.658042485639E+02    0.78105E-05   -0.20904E-05 54475   0.920E-03    0.156E-02
RMM:   9    -0.658042433037E+02    0.52602E-05   -0.50206E-06 50345   0.475E-03    0.109E-02
RMM:  10    -0.658042407779E+02    0.25258E-05   -0.46059E-06 50434   0.324E-03    0.601E-03
RMM:  11    -0.658042398860E+02    0.89187E-06   -0.79344E-06 54190   0.374E-03    0.110E-03
RMM:  12    -0.658042400247E+02   -0.13867E-06   -0.69978E-07 34287   0.142E-03    0.170E-03
RMM:  13    -0.658042400087E+02    0.15978E-07   -0.13583E-07 27783   0.116E-03
  11 F= -.65804240E+02 E0= -.65801828E+02  d E =-.201504E-02
       N       E                     dE             d eps       ncg     rms          rms(c)
DAV:   1    -0.658047778827E+02   -0.53786E-03   -0.78003E-01 50448   0.176E+00    0.726E-02
RMM:   2    -0.658052654483E+02   -0.48757E-03   -0.47888E-03 50544   0.194E-01    0.923E-02
RMM:   3    -0.658052444958E+02    0.20953E-04   -0.87576E-04 60238   0.493E-02    0.622E-02
RMM:   4    -0.658051462913E+02    0.98205E-04   -0.98523E-05 51013   0.258E-02    0.427E-02
RMM:   5    -0.658051081047E+02    0.38187E-04   -0.49424E-05 50663   0.198E-02    0.291E-02
RMM:   6    -0.658051032790E+02    0.48257E-05   -0.87641E-05 50491   0.206E-02    0.273E-02
RMM:   7    -0.658050935823E+02    0.96967E-05   -0.45124E-05 50476   0.159E-02    0.642E-03
RMM:   8    -0.658050922148E+02    0.13676E-05   -0.43999E-06 51671   0.432E-03    0.522E-03
RMM:   9    -0.658050915642E+02    0.65056E-06   -0.84875E-07 46695   0.231E-03    0.357E-03
RMM:  10    -0.658050912367E+02    0.32746E-06   -0.71292E-07 33243   0.154E-03    0.175E-03
RMM:  11    -0.658050911432E+02    0.93532E-07   -0.88060E-07 37295   0.159E-03
  12 F= -.65805091E+02 E0= -.65802679E+02  d E =-.851135E-03
       N       E                     dE             d eps       ncg     rms          rms(c)
DAV:   1    -0.658052573571E+02   -0.16612E-03   -0.21460E-01 50960   0.922E-01    0.378E-02
RMM:   2    -0.658053920859E+02   -0.13473E-03   -0.13093E-03 50545   0.102E-01    0.476E-02
RMM:   3    -0.658053881788E+02    0.39071E-05   -0.23931E-04 60601   0.256E-02    0.328E-02
RMM:   4    -0.658053620343E+02    0.26145E-04   -0.26210E-05 50944   0.133E-02    0.225E-02
RMM:   5    -0.658053522831E+02    0.97511E-05   -0.13566E-05 50606   0.103E-02    0.154E-02
RMM:   6    -0.658053522966E+02   -0.13490E-07   -0.25047E-05 50476   0.109E-02    0.144E-02
RMM:   7    -0.658053499410E+02    0.23556E-05   -0.12449E-05 50448   0.832E-03    0.337E-03
RMM:   8    -0.658053496174E+02    0.32359E-06   -0.11732E-06 45065   0.225E-03    0.278E-03
RMM:   9    -0.658053494337E+02    0.18367E-06   -0.23844E-07 30137   0.133E-03    0.192E-03
RMM:  10    -0.658053493417E+02    0.92048E-07   -0.22865E-07 28831   0.104E-03
  13 F= -.65805349E+02 E0= -.65802937E+02  d E =-.110933E-02
       N       E                     dE             d eps       ncg     rms          rms(c)
DAV:   1    -0.658051258029E+02    0.22363E-03   -0.85833E-01 50352   0.184E+00    0.762E-02
RMM:   2    -0.658056655323E+02   -0.53973E-03   -0.52882E-03 50546   0.204E-01    0.971E-02
RMM:   3    -0.658056407136E+02    0.24819E-04   -0.96625E-04 60262   0.518E-02    0.654E-02
RMM:   4    -0.658055322397E+02    0.10847E-03   -0.10847E-04 51008   0.271E-02    0.449E-02
RMM:   5    -0.658054901825E+02    0.42057E-04   -0.54521E-05 50663   0.207E-02    0.307E-02
RMM:   6    -0.658054845062E+02    0.56763E-05   -0.97441E-05 50496   0.217E-02    0.287E-02
RMM:   7    -0.658054737191E+02    0.10787E-04   -0.50005E-05 50478   0.167E-02    0.679E-03
RMM:   8    -0.658054721838E+02    0.15353E-05   -0.48671E-06 51672   0.455E-03    0.551E-03
RMM:   9    -0.658054714565E+02    0.72730E-06   -0.94317E-07 48538   0.242E-03    0.377E-03
RMM:  10    -0.658054710907E+02    0.36580E-06   -0.79088E-07 34255   0.159E-03    0.184E-03
RMM:  11    -0.658054709886E+02    0.10215E-06   -0.97570E-07 38799   0.165E-03    0.772E-04
RMM:  12    -0.658054710223E+02   -0.33739E-07   -0.12988E-07 27619   0.103E-03
  14 F= -.65805471E+02 E0= -.65803058E+02  d E =-.123101E-02
       N       E                     dE             d eps       ncg     rms          rms(c)
DAV:   1    -0.658054441220E+02    0.26867E-04   -0.13539E-01 50608   0.733E-01    0.302E-02
RMM:   2    -0.658055207214E+02   -0.76599E-04   -0.82311E-04 50539   0.802E-02    0.372E-02
RMM:   3    -0.658055189913E+02    0.17301E-05   -0.15123E-04 60463   0.204E-02    0.263E-02
RMM:   4    -0.658054997428E+02    0.19248E-04   -0.17290E-05 50893   0.109E-02    0.177E-02
RMM:   5    -0.658054918566E+02    0.78863E-05   -0.87287E-06 50584   0.836E-03    0.120E-02
RMM:   6    -0.658054883631E+02    0.34935E-05   -0.14947E-05 50450   0.850E-03    0.114E-02
RMM:   7    -0.658054855890E+02    0.27742E-05   -0.76607E-06 50428   0.654E-03    0.251E-03
RMM:   8    -0.658054853179E+02    0.27101E-06   -0.70788E-07 37397   0.181E-03    0.216E-03
RMM:   9    -0.658054851991E+02    0.11885E-06   -0.17271E-07 28518   0.125E-03    0.145E-03
RMM:  10    -0.658054851507E+02    0.48400E-07   -0.13511E-07 27875   0.792E-04
  15 F= -.65805485E+02 E0= -.65803072E+02  d E =-.124514E-02
       N       E                     dE             d eps       ncg     rms          rms(c)
DAV:   1    -0.658058448868E+02   -0.35969E-03   -0.36108E-01 50336   0.120E+00    0.459E-02
RMM:   2    -0.658059951025E+02   -0.15022E-03   -0.18685E-03 50611   0.138E-01    0.408E-02
RMM:   3    -0.658060429130E+02   -0.47810E-04   -0.29978E-04 56719   0.336E-02    0.412E-02
RMM:   4    -0.658059976029E+02    0.45310E-04   -0.43443E-05 50926   0.145E-02    0.301E-02
RMM:   5    -0.658059755484E+02    0.22055E-04   -0.22836E-05 50653   0.124E-02    0.147E-02
RMM:   6    -0.658059740077E+02    0.15407E-05   -0.20900E-05 50802   0.103E-02    0.910E-03
RMM:   7    -0.658059726122E+02    0.13955E-05   -0.90525E-06 51308   0.851E-03    0.386E-03
RMM:   8    -0.658059723092E+02    0.30299E-06   -0.10304E-06 49511   0.287E-03    0.216E-03
RMM:   9    -0.658059722213E+02    0.87901E-07   -0.21396E-07 30498   0.108E-03
  16 F= -.65805972E+02 E0= -.65803560E+02  d E =-.487071E-03
       N       E                     dE             d eps       ncg     rms          rms(c)
DAV:   1    -0.658060657195E+02   -0.93410E-04   -0.88176E-02 50912   0.595E-01    0.228E-02
RMM:   2    -0.658061045962E+02   -0.38877E-04   -0.46023E-04 50602   0.686E-02    0.206E-02
RMM:   3    -0.658061164539E+02   -0.11858E-04   -0.74089E-05 56897   0.166E-02    0.206E-02
RMM:   4    -0.658061049513E+02    0.11503E-04   -0.10957E-05 50772   0.747E-03    0.147E-02
RMM:   5    -0.658061002420E+02    0.47092E-05   -0.55591E-06 50623   0.617E-03    0.730E-03
RMM:   6    -0.658061003485E+02   -0.10643E-06   -0.51802E-06 50734   0.510E-03    0.454E-03
RMM:   7    -0.658061001172E+02    0.23126E-06   -0.21949E-06 50977   0.420E-03    0.185E-03
RMM:   8    -0.658061000742E+02    0.42972E-07   -0.21480E-07 30285   0.138E-03
  17 F= -.65806100E+02 E0= -.65803689E+02  d E =-.614924E-03
       N       E                     dE             d eps       ncg     rms          rms(c)
DAV:   1    -0.658060047075E+02    0.95410E-04   -0.35276E-01 50320   0.119E+00    0.457E-02
RMM:   2    -0.658061519277E+02   -0.14722E-03   -0.18293E-03 50612   0.137E-01    0.405E-02
RMM:   3    -0.658062007287E+02   -0.48801E-04   -0.29482E-04 56618   0.334E-02    0.412E-02
RMM:   4    -0.658061536162E+02    0.47113E-04   -0.43607E-05 50913   0.145E-02    0.299E-02
RMM:   5    -0.658061325281E+02    0.21088E-04   -0.22666E-05 50644   0.122E-02    0.145E-02
RMM:   6    -0.658061311643E+02    0.13639E-05   -0.19616E-05 50785   0.974E-03    0.854E-03
RMM:   7    -0.658061296801E+02    0.14842E-05   -0.85026E-06 51212   0.811E-03    0.373E-03
RMM:   8    -0.658061294244E+02    0.25564E-06   -0.10430E-06 49683   0.318E-03    0.172E-03
RMM:   9    -0.658061293865E+02    0.37937E-07   -0.25978E-07 30224   0.112E-03
  18 F= -.65806129E+02 E0= -.65803719E+02  d E =-.644236E-03
       N       E                     dE             d eps       ncg     rms          rms(c)
DAV:   1    -0.658061281791E+02    0.12454E-05   -0.86875E-02 50432   0.591E-01    0.225E-02
RMM:   2    -0.658061591838E+02   -0.31005E-04   -0.44209E-04 50612   0.673E-02    0.189E-02
RMM:   3    -0.658061699504E+02   -0.10767E-04   -0.71423E-05 56410   0.167E-02    0.199E-02
RMM:   4    -0.658061599731E+02    0.99773E-05   -0.10224E-05 51039   0.679E-03    0.152E-02
RMM:   5    -0.658061528351E+02    0.71379E-05   -0.55498E-06 50611   0.612E-03    0.705E-03
RMM:   6    -0.658061512477E+02    0.15875E-05   -0.49130E-06 50745   0.502E-03    0.469E-03
RMM:   7    -0.658061506324E+02    0.61522E-06   -0.21709E-06 50663   0.415E-03    0.200E-03
RMM:   8    -0.658061504430E+02    0.18947E-06   -0.24196E-07 30765   0.121E-03    0.120E-03
RMM:   9    -0.658061503918E+02    0.51215E-07   -0.66051E-08 27180   0.699E-04
  19 F= -.65806150E+02 E0= -.65803740E+02  d E =-.665241E-03
       N       E                     dE             d eps       ncg     rms          rms(c)
DAV:   1    -0.658063237495E+02   -0.17331E-03   -0.15200E-01 50336   0.787E-01    0.271E-02
RMM:   2    -0.658063636565E+02   -0.39907E-04   -0.52440E-04 50514   0.857E-02    0.256E-02
RMM:   3    -0.658063665868E+02   -0.29302E-05   -0.47292E-05 51949   0.180E-02    0.204E-02
RMM:   4    -0.658063640346E+02    0.25522E-05   -0.14271E-05 50602   0.884E-03    0.221E-02
RMM:   5    -0.658063502240E+02    0.13811E-04   -0.13166E-05 50567   0.791E-03    0.506E-03
RMM:   6    -0.658063505645E+02   -0.34051E-06   -0.34797E-06 50321   0.489E-03    0.476E-03
RMM:   7    -0.658063500479E+02    0.51653E-06   -0.10388E-06 49384   0.290E-03    0.209E-03
RMM:   8    -0.658063499343E+02    0.11360E-06   -0.21574E-07 29219   0.150E-03    0.101E-03
RMM:   9    -0.658063499468E+02   -0.12464E-07   -0.70654E-08 26891   0.961E-04
  20 F= -.65806350E+02 E0= -.65803934E+02  d E =-.199555E-03
       N       E                     dE             d eps       ncg     rms          rms(c)
DAV:   1    -0.658064105931E+02   -0.60659E-04   -0.44577E-02 50816   0.426E-01    0.147E-02
RMM:   2    -0.658064231403E+02   -0.12547E-04   -0.15402E-04 50517   0.465E-02    0.140E-02
RMM:   3    -0.658064242619E+02   -0.11217E-05   -0.13802E-05 52013   0.966E-03    0.113E-02
RMM:   4    -0.658064230414E+02    0.12205E-05   -0.42815E-06 50389   0.491E-03    0.116E-02
RMM:   5    -0.658064198197E+02    0.32217E-05   -0.38120E-06 50566   0.424E-03    0.275E-03
RMM:   6    -0.658064200182E+02   -0.19850E-06   -0.10346E-06 49120   0.267E-03    0.263E-03
RMM:   7    -0.658064198713E+02    0.14698E-06   -0.29912E-07 30530   0.160E-03    0.113E-03
RMM:   8    -0.658064198344E+02    0.36831E-07   -0.73156E-08 26869   0.962E-04
  21 F= -.65806420E+02 E0= -.65804002E+02  d E =-.269443E-03
       N       E                     dE             d eps       ncg     rms          rms(c)
DAV:   1    -0.658064477188E+02   -0.27848E-04   -0.17833E-01 50320   0.853E-01    0.293E-02
RMM:   2    -0.658064949404E+02   -0.47222E-04   -0.61656E-04 50522   0.929E-02    0.279E-02
RMM:   3    -0.658064985308E+02   -0.35904E-05   -0.55481E-05 51983   0.195E-02    0.224E-02
RMM:   4    -0.658064943161E+02    0.42147E-05   -0.16888E-05 50630   0.965E-03    0.236E-02
RMM:   5    -0.658064786700E+02    0.15646E-04   -0.15263E-05 50578   0.854E-03    0.542E-03
RMM:   6    -0.658064790665E+02   -0.39643E-06   -0.40536E-06 50338   0.527E-03    0.512E-03
RMM:   7    -0.658064784592E+02    0.60722E-06   -0.12224E-06 49769   0.313E-03    0.228E-03
RMM:   8    -0.658064783268E+02    0.13245E-06   -0.25178E-07 29600   0.162E-03    0.108E-03
RMM:   9    -0.658064783398E+02   -0.13068E-07   -0.80583E-08 26998   0.103E-03
  22 F= -.65806478E+02 E0= -.65804055E+02  d E =-.327948E-03
       N       E                     dE             d eps       ncg     rms          rms(c)
DAV:   1    -0.658065332828E+02   -0.54956E-04   -0.10419E-01 50336   0.648E-01    0.240E-02
RMM:   2    -0.658065707823E+02   -0.37499E-04   -0.47425E-04 50582   0.734E-02    0.202E-02
RMM:   3    -0.658065800166E+02   -0.92343E-05   -0.70403E-05 54927   0.179E-02    0.193E-02
RMM:   4    -0.658065747024E+02    0.53142E-05   -0.11425E-05 51239   0.715E-03    0.181E-02
RMM:   5    -0.658065657334E+02    0.89689E-05   -0.72667E-06 50473   0.613E-03    0.691E-03
RMM:   6    -0.658065661440E+02   -0.41060E-06   -0.47878E-06 50441   0.481E-03    0.584E-03
RMM:   7    -0.658065654529E+02    0.69114E-06   -0.23326E-06 50203   0.374E-03    0.224E-03
RMM:   8    -0.658065653806E+02    0.72250E-07   -0.38006E-07 31612   0.162E-03
  23 F= -.65806565E+02 E0= -.65804137E+02  d E =-.870408E-04
