unknown system                          
           1
     5.412900   -5.412900   -0.000000
     0.000000    5.412900   -5.412900
    10.584969   10.584969   10.584969
   Cu   Rh   H 
  44   1   1
Direct configuration=     1
   0.22222222  0.11111111  0.00000000
   0.22222222  0.44444444  0.00000000
   0.22222222  0.77777778  0.00000000
   0.55555556  0.11111111  0.00000000
   0.55555556  0.44444444  0.00000000
   0.55555556  0.77777778  0.00000000
   0.88888889  0.11111111  0.00000000
   0.88888889  0.44444444  0.00000000
   0.88888889  0.77777778  0.00000000
   0.00000000  0.00000000  0.11363913
   0.00000000  0.33333333  0.11363913
   0.00000000  0.66666667  0.11363913
   0.33333333  0.00000000  0.11363913
   0.33333333  0.33333333  0.11363913
   0.33333333  0.66666667  0.11363913
   0.66666667  0.00000000  0.11363913
   0.66666667  0.33333333  0.11363913
   0.66666667  0.66666667  0.11363913
   0.99686114  0.99830963  0.45261059
   0.21958403  0.10821768  0.33865355
   0.11002202  0.22217385  0.22653758
   0.33185968  0.99835223  0.45257605
   0.55410116  0.11346797  0.34039559
   0.44410420  0.22216318  0.22654956
   0.66888550  0.00737921  0.45203526
   0.89033153  0.11347490  0.34043088
   0.77742909  0.22284964  0.22769122
   0.99828940  0.33796464  0.45376607
   0.22236458  0.44592922  0.33922995
   0.11074590  0.55601907  0.22735198
   0.55457371  0.44594898  0.33925941
   0.44462809  0.55727265  0.22687435
   0.67004268  0.33786070  0.45373065
   0.88837574  0.44575382  0.34077286
   0.77724450  0.55602643  0.22737285
   0.00028055  0.67024279  0.45330401
   0.22314721  0.77754281  0.34094861
   0.11027305  0.88859216  0.22717930
   0.33429108  0.67219368  0.45625934
   0.55575802  0.78053505  0.34051083
   0.44358189  0.88971808  0.22724871
   0.66817050  0.67212971  0.45629401
   0.88534914  0.77754262  0.34096796
   0.77812345  0.88975022  0.22725714
   0.33121986  0.33209029  0.45507952
   0.43752307  0.54535542  0.51079327
Direct configuration=     2
   0.22222222  0.11111111  0.00000000
   0.22222222  0.44444444  0.00000000
   0.22222222  0.77777778  0.00000000
   0.55555556  0.11111111  0.00000000
   0.55555556  0.44444444  0.00000000
   0.55555556  0.77777778  0.00000000
   0.88888889  0.11111111  0.00000000
   0.88888889  0.44444444  0.00000000
   0.88888889  0.77777778  0.00000000
   0.00000000  0.00000000  0.11363913
   0.00000000  0.33333333  0.11363913
   0.00000000  0.66666667  0.11363913
   0.33333333  0.00000000  0.11363913
   0.33333333  0.33333333  0.11363913
   0.33333333  0.66666667  0.11363913
   0.66666667  0.00000000  0.11363913
   0.66666667  0.33333333  0.11363913
   0.66666667  0.66666667  0.11363913
   0.99686192  0.99842765  0.45257314
   0.21977716  0.10859539  0.33872377
   0.11009967  0.22224200  0.22644528
   0.33198899  0.99846717  0.45253796
   0.55423662  0.11344517  0.34042304
   0.44410803  0.22223795  0.22645775
   0.66882110  0.00723121  0.45199689
   0.89018793  0.11345313  0.34045612
   0.77741405  0.22281138  0.22758622
   0.99829794  0.33780567  0.45370886
   0.22230523  0.44582066  0.33933859
   0.11071813  0.55604488  0.22728468
   0.55453468  0.44583886  0.33936729
   0.44463017  0.55727116  0.22675911
   0.66989148  0.33770564  0.45367350
   0.88842936  0.44584726  0.34077382
   0.77730527  0.55604861  0.22730523
   0.00021404  0.67009194  0.45322311
   0.22300520  0.77741740  0.34097062
   0.11018306  0.88840513  0.22714997
   0.33408574  0.67232756  0.45617058
   0.55578350  0.78057054  0.34052737
   0.44369480  0.88968828  0.22719922
   0.66852865  0.67226146  0.45620399
   0.88538237  0.77742008  0.34099106
   0.77799070  0.88972106  0.22720774
   0.33136082  0.33235381  0.45492956
   0.43745295  0.54519210  0.51062064
Direct configuration=     3
   0.22222222  0.11111111  0.00000000
   0.22222222  0.44444444  0.00000000
   0.22222222  0.77777778  0.00000000
   0.55555556  0.11111111  0.00000000
   0.55555556  0.44444444  0.00000000
   0.55555556  0.77777778  0.00000000
   0.88888889  0.11111111  0.00000000
   0.88888889  0.44444444  0.00000000
   0.88888889  0.77777778  0.00000000
   0.00000000  0.00000000  0.11363913
   0.00000000  0.33333333  0.11363913
   0.00000000  0.66666667  0.11363913
   0.33333333  0.00000000  0.11363913
   0.33333333  0.33333333  0.11363913
   0.33333333  0.66666667  0.11363913
   0.66666667  0.00000000  0.11363913
   0.66666667  0.33333333  0.11363913
   0.66666667  0.66666667  0.11363913
   0.99686324  0.99862572  0.45251029
   0.22010130  0.10922930  0.33884162
   0.11023000  0.22235637  0.22629036
   0.33220600  0.99866007  0.45247403
   0.55446397  0.11340691  0.34046911
   0.44411445  0.22236342  0.22630366
   0.66871301  0.00698281  0.45193250
   0.88994693  0.11341658  0.34049848
   0.77738880  0.22274716  0.22740999
   0.99831228  0.33753887  0.45361286
   0.22220562  0.44563848  0.33952094
   0.11067151  0.55608819  0.22717172
   0.55446918  0.44565404  0.33954836
   0.44463365  0.55726865  0.22656572
   0.66963772  0.33744540  0.45357758
   0.88851935  0.44600409  0.34077544
   0.77740725  0.55608582  0.22719173
   0.00010242  0.66983877  0.45308734
   0.22276686  0.77720692  0.34100757
   0.11003203  0.88809125  0.22710074
   0.33374112  0.67255224  0.45602163
   0.55582626  0.78063009  0.34055512
   0.44388430  0.88963826  0.22711617
   0.66912974  0.67248257  0.45605292
   0.88543816  0.77721441  0.34102982
   0.77776790  0.88967213  0.22712484
   0.33159738  0.33279607  0.45467788
   0.43733525  0.54491800  0.51033091
Direct configuration=     4
   0.22222222  0.11111111  0.00000000
   0.22222222  0.44444444  0.00000000
   0.22222222  0.77777778  0.00000000
   0.55555556  0.11111111  0.00000000
   0.55555556  0.44444444  0.00000000
   0.55555556  0.77777778  0.00000000
   0.88888889  0.11111111  0.00000000
   0.88888889  0.44444444  0.00000000
   0.88888889  0.77777778  0.00000000
   0.00000000  0.00000000  0.11363913
   0.00000000  0.33333333  0.11363913
   0.00000000  0.66666667  0.11363913
   0.33333333  0.00000000  0.11363913
   0.33333333  0.33333333  0.11363913
   0.33333333  0.66666667  0.11363913
   0.66666667  0.00000000  0.11363913
   0.66666667  0.33333333  0.11363913
   0.66666667  0.66666667  0.11363913
   0.99686349  0.99866323  0.45249838
   0.22016269  0.10934936  0.33886394
   0.11025468  0.22237804  0.22626102
   0.33224710  0.99869660  0.45246193
   0.55450703  0.11339966  0.34047783
   0.44411567  0.22238718  0.22627447
   0.66869254  0.00693576  0.45192031
   0.88990129  0.11340966  0.34050650
   0.77738402  0.22273500  0.22737661
   0.99831500  0.33748834  0.45359467
   0.22218676  0.44560398  0.33955547
   0.11066269  0.55609639  0.22715033
   0.55445677  0.44561904  0.33958265
   0.44463431  0.55726818  0.22652909
   0.66958966  0.33739611  0.45355942
   0.88853640  0.44603379  0.34077575
   0.77742657  0.55609287  0.22717024
   0.00008128  0.66979082  0.45306162
   0.22272172  0.77716706  0.34101457
   0.11000342  0.88803180  0.22709142
   0.33367585  0.67259479  0.45599341
   0.55583436  0.78064137  0.34056038
   0.44392019  0.88962879  0.22710044
   0.66924358  0.67252445  0.45602431
   0.88544872  0.77717546  0.34103716
   0.77772570  0.88966286  0.22710914
   0.33164218  0.33287983  0.45463021
   0.43731296  0.54486609  0.51027604
Direct configuration=     5
   0.22222222  0.11111111  0.00000000
   0.22222222  0.44444444  0.00000000
   0.22222222  0.77777778  0.00000000
   0.55555556  0.11111111  0.00000000
   0.55555556  0.44444444  0.00000000
   0.55555556  0.77777778  0.00000000
   0.88888889  0.11111111  0.00000000
   0.88888889  0.44444444  0.00000000
   0.88888889  0.77777778  0.00000000
   0.00000000  0.00000000  0.11363913
   0.00000000  0.33333333  0.11363913
   0.00000000  0.66666667  0.11363913
   0.33333333  0.00000000  0.11363913
   0.33333333  0.33333333  0.11363913
   0.33333333  0.66666667  0.11363913
   0.66666667  0.00000000  0.11363913
   0.66666667  0.33333333  0.11363913
   0.66666667  0.66666667  0.11363913
   0.99703103  0.99884067  0.45244768
   0.22021998  0.10943984  0.33876981
   0.11028506  0.22238222  0.22623356
   0.33228966  0.99887144  0.45241122
   0.55457364  0.11333989  0.34039994
   0.44411397  0.22239515  0.22624983
   0.66860370  0.00672793  0.45190992
   0.88979735  0.11335274  0.34042879
   0.77738759  0.22272805  0.22730822
   0.99817902  0.33726854  0.45354503
   0.22209027  0.44565208  0.33947692
   0.11069883  0.55606600  0.22713300
   0.55461798  0.44566675  0.33950665
   0.44461183  0.55720145  0.22650902
   0.66954007  0.33719372  0.45351352
   0.88853445  0.44601056  0.34069168
   0.77737891  0.55606542  0.22715282
   0.00002786  0.66964538  0.45299514
   0.22267751  0.77720407  0.34094917
   0.11000430  0.88801581  0.22712585
   0.33353796  0.67270702  0.45589531
   0.55578916  0.78052516  0.34051436
   0.44395352  0.88962139  0.22709189
   0.66952958  0.67263802  0.45592512
   0.88555662  0.77721768  0.34097223
   0.77770048  0.88965021  0.22710152
   0.33172124  0.33300522  0.45460004
   0.43733316  0.54486958  0.51002977
Direct configuration=     6
   0.22222222  0.11111111  0.00000000
   0.22222222  0.44444444  0.00000000
   0.22222222  0.77777778  0.00000000
   0.55555556  0.11111111  0.00000000
   0.55555556  0.44444444  0.00000000
   0.55555556  0.77777778  0.00000000
   0.88888889  0.11111111  0.00000000
   0.88888889  0.44444444  0.00000000
   0.88888889  0.77777778  0.00000000
   0.00000000  0.00000000  0.11363913
   0.00000000  0.33333333  0.11363913
   0.00000000  0.66666667  0.11363913
   0.33333333  0.00000000  0.11363913
   0.33333333  0.33333333  0.11363913
   0.33333333  0.66666667  0.11363913
   0.66666667  0.00000000  0.11363913
   0.66666667  0.33333333  0.11363913
   0.66666667  0.66666667  0.11363913
   0.99731382  0.99914015  0.45236210
   0.22031668  0.10959257  0.33861092
   0.11033634  0.22238929  0.22618722
   0.33236148  0.99916656  0.45232563
   0.55468607  0.11323900  0.34026846
   0.44411109  0.22240859  0.22620824
   0.66845374  0.00637714  0.45189237
   0.88962192  0.11325665  0.34029763
   0.77739360  0.22271631  0.22719280
   0.99794952  0.33689755  0.45346122
   0.22192741  0.44573327  0.33934432
   0.11075984  0.55601470  0.22710374
   0.55489008  0.44574728  0.33937838
   0.44457389  0.55708882  0.22647516
   0.66945635  0.33685210  0.45343605
   0.88853116  0.44597134  0.34054979
   0.77729846  0.55601908  0.22712342
  -0.00006231  0.66939988  0.45288294
   0.22260289  0.77726654  0.34083879
   0.11000578  0.88798882  0.22718396
   0.33330521  0.67289644  0.45572971
   0.55571287  0.78032902  0.34043668
   0.44400979  0.88960889  0.22707746
   0.67001231  0.67282971  0.45575770
   0.88573875  0.77728894  0.34086263
   0.77765792  0.88962886  0.22708864
   0.33185468  0.33321686  0.45454911
   0.43736725  0.54487547  0.50961410
Direct configuration=     7
   0.22222222  0.11111111  0.00000000
   0.22222222  0.44444444  0.00000000
   0.22222222  0.77777778  0.00000000
   0.55555556  0.11111111  0.00000000
   0.55555556  0.44444444  0.00000000
   0.55555556  0.77777778  0.00000000
   0.88888889  0.11111111  0.00000000
   0.88888889  0.44444444  0.00000000
   0.88888889  0.77777778  0.00000000
   0.00000000  0.00000000  0.11363913
   0.00000000  0.33333333  0.11363913
   0.00000000  0.66666667  0.11363913
   0.33333333  0.00000000  0.11363913
   0.33333333  0.33333333  0.11363913
   0.33333333  0.66666667  0.11363913
   0.66666667  0.00000000  0.11363913
   0.66666667  0.33333333  0.11363913
   0.66666667  0.66666667  0.11363913
   0.99787940  0.99973913  0.45219094
   0.22051007  0.10989802  0.33829316
   0.11043890  0.22240343  0.22609452
   0.33250514  0.99975679  0.45215445
   0.55491094  0.11303723  0.34000549
   0.44410534  0.22243546  0.22612507
   0.66815382  0.00567555  0.45185729
   0.88927105  0.11306449  0.34003531
   0.77740562  0.22269282  0.22696195
   0.99749050  0.33615555  0.45329362
   0.22160169  0.44589566  0.33907914
   0.11088185  0.55591211  0.22704524
   0.55543428  0.44590833  0.33912183
   0.44449800  0.55686356  0.22640744
   0.66928893  0.33616886  0.45328112
   0.88852458  0.44589291  0.34026600
   0.77713757  0.55592642  0.22706463
  -0.00024264  0.66890890  0.45265852
   0.22245364  0.77739148  0.34061803
   0.11000874  0.88793483  0.22730018
   0.33283973  0.67327530  0.45539852
   0.55556030  0.77993674  0.34028131
   0.44412232  0.88958390  0.22704861
   0.67097778  0.67321309  0.45542285
   0.88610299  0.77743147  0.34064344
   0.77757279  0.88958617  0.22706290
   0.33212155  0.33364014  0.45444727
   0.43743542  0.54488726  0.50878275
Direct configuration=     8
   0.22222222  0.11111111  0.00000000
   0.22222222  0.44444444  0.00000000
   0.22222222  0.77777778  0.00000000
   0.55555556  0.11111111  0.00000000
   0.55555556  0.44444444  0.00000000
   0.55555556  0.77777778  0.00000000
   0.88888889  0.11111111  0.00000000
   0.88888889  0.44444444  0.00000000
   0.88888889  0.77777778  0.00000000
   0.00000000  0.00000000  0.11363913
   0.00000000  0.33333333  0.11363913
   0.00000000  0.66666667  0.11363913
   0.33333333  0.00000000  0.11363913
   0.33333333  0.33333333  0.11363913
   0.33333333  0.66666667  0.11363913
   0.66666667  0.00000000  0.11363913
   0.66666667  0.33333333  0.11363913
   0.66666667  0.66666667  0.11363913
   0.99763479  0.99948008  0.45226497
   0.22042643  0.10976591  0.33843059
   0.11039454  0.22239731  0.22613461
   0.33244301  0.99950152  0.45222849
   0.55481369  0.11312450  0.34011922
   0.44410783  0.22242384  0.22616104
   0.66828353  0.00597898  0.45187247
   0.88942279  0.11314760  0.34014876
   0.77740042  0.22270298  0.22706179
   0.99768902  0.33647646  0.45336610
   0.22174256  0.44582543  0.33919383
   0.11082908  0.55595648  0.22707054
   0.55519892  0.44583867  0.33923279
   0.44453082  0.55696098  0.22643673
   0.66936134  0.33646436  0.45334813
   0.88852743  0.44592683  0.34038874
   0.77720716  0.55596650  0.22709006
  -0.00016464  0.66912124  0.45275558
   0.22251819  0.77733744  0.34071351
   0.11000746  0.88795818  0.22724991
   0.33304104  0.67311145  0.45554175
   0.55562629  0.78010640  0.34034851
   0.44407365  0.88959471  0.22706109
   0.67056023  0.67304728  0.45556767
   0.88594546  0.77736983  0.34073824
   0.77760960  0.88960463  0.22707403
   0.33200613  0.33345707  0.45449131
   0.43740594  0.54488216  0.50914230
Direct configuration=     9
   0.22222222  0.11111111  0.00000000
   0.22222222  0.44444444  0.00000000
   0.22222222  0.77777778  0.00000000
   0.55555556  0.11111111  0.00000000
   0.55555556  0.44444444  0.00000000
   0.55555556  0.77777778  0.00000000
   0.88888889  0.11111111  0.00000000
   0.88888889  0.44444444  0.00000000
   0.88888889  0.77777778  0.00000000
   0.00000000  0.00000000  0.11363913
   0.00000000  0.33333333  0.11363913
   0.00000000  0.66666667  0.11363913
   0.33333333  0.00000000  0.11363913
   0.33333333  0.33333333  0.11363913
   0.33333333  0.66666667  0.11363913
   0.66666667  0.00000000  0.11363913
   0.66666667  0.33333333  0.11363913
   0.66666667  0.66666667  0.11363913
   0.99782245  0.99955025  0.45216047
   0.22049846  0.10987920  0.33834018
   0.11033354  0.22232338  0.22610414
   0.33237730  0.99957138  0.45212270
   0.55480266  0.11304023  0.34002535
   0.44413013  0.22235527  0.22613279
   0.66820204  0.00577001  0.45182318
   0.88938924  0.11305747  0.34005089
   0.77742864  0.22272447  0.22700553
   0.99757497  0.33630827  0.45327808
   0.22173556  0.44581890  0.33911655
   0.11084661  0.55596124  0.22701542
   0.55524214  0.44583527  0.33915219
   0.44452069  0.55691769  0.22642820
   0.66935817  0.33630409  0.45326451
   0.88848194  0.44581633  0.34029127
   0.77722138  0.55597486  0.22703728
  -0.00016515  0.66905918  0.45266326
   0.22258535  0.77751502  0.34063213
   0.11003230  0.88798207  0.22719994
   0.33296892  0.67307365  0.45539727
   0.55555419  0.77992211  0.34027969
   0.44403618  0.88955737  0.22702952
   0.67065705  0.67302071  0.45542315
   0.88609544  0.77754806  0.34065881
   0.77763982  0.88956699  0.22704281
   0.33197752  0.33336009  0.45424888
   0.43768451  0.54538220  0.50893858
Direct configuration=    10
   0.22222222  0.11111111  0.00000000
   0.22222222  0.44444444  0.00000000
   0.22222222  0.77777778  0.00000000
   0.55555556  0.11111111  0.00000000
   0.55555556  0.44444444  0.00000000
   0.55555556  0.77777778  0.00000000
   0.88888889  0.11111111  0.00000000
   0.88888889  0.44444444  0.00000000
   0.88888889  0.77777778  0.00000000
   0.00000000  0.00000000  0.11363913
   0.00000000  0.33333333  0.11363913
   0.00000000  0.66666667  0.11363913
   0.33333333  0.00000000  0.11363913
   0.33333333  0.33333333  0.11363913
   0.33333333  0.66666667  0.11363913
   0.66666667  0.00000000  0.11363913
   0.66666667  0.33333333  0.11363913
   0.66666667  0.66666667  0.11363913
   0.99799983  0.99961659  0.45206170
   0.22056654  0.10998629  0.33825472
   0.11027588  0.22225349  0.22607534
   0.33231519  0.99963742  0.45202270
   0.55479224  0.11296058  0.33993662
   0.44415121  0.22229046  0.22610609
   0.66812501  0.00557246  0.45177659
   0.88935753  0.11297228  0.33995838
   0.77745532  0.22274479  0.22695234
   0.99746717  0.33614929  0.45319487
   0.22172893  0.44581273  0.33904350
   0.11086318  0.55596574  0.22696331
   0.55528300  0.44583205  0.33907599
   0.44451111  0.55687677  0.22642015
   0.66935517  0.33615260  0.45318547
   0.88843893  0.44571187  0.34019914
   0.77723484  0.55598276  0.22698739
  -0.00016563  0.66900051  0.45257599
   0.22264883  0.77768287  0.34055521
   0.11005578  0.88800466  0.22715269
   0.33290073  0.67303792  0.45526069
   0.55548604  0.77974790  0.34021463
   0.44400077  0.88952208  0.22699969
   0.67074856  0.67299560  0.45528653
   0.88623721  0.77771654  0.34058372
   0.77766839  0.88953141  0.22701330
   0.33195047  0.33326841  0.45401970
   0.43794785  0.54585489  0.50874601
Direct configuration=    11
   0.22222222  0.11111111  0.00000000
   0.22222222  0.44444444  0.00000000
   0.22222222  0.77777778  0.00000000
   0.55555556  0.11111111  0.00000000
   0.55555556  0.44444444  0.00000000
   0.55555556  0.77777778  0.00000000
   0.88888889  0.11111111  0.00000000
   0.88888889  0.44444444  0.00000000
   0.88888889  0.77777778  0.00000000
   0.00000000  0.00000000  0.11363913
   0.00000000  0.33333333  0.11363913
   0.00000000  0.66666667  0.11363913
   0.33333333  0.00000000  0.11363913
   0.33333333  0.33333333  0.11363913
   0.33333333  0.66666667  0.11363913
   0.66666667  0.00000000  0.11363913
   0.66666667  0.33333333  0.11363913
   0.66666667  0.66666667  0.11363913
   0.99835461  0.99974926  0.45186414
   0.22070272  0.11020046  0.33808380
   0.11016056  0.22211371  0.22601774
   0.33219097  0.99976950  0.45182271
   0.55477140  0.11280127  0.33975916
   0.44419336  0.22216083  0.22605269
   0.66797095  0.00517738  0.45168341
   0.88929411  0.11280190  0.33977336
   0.77750867  0.22278542  0.22684597
   0.99725156  0.33583133  0.45302845
   0.22171569  0.44580039  0.33889740
   0.11089632  0.55597475  0.22685910
   0.55536471  0.44582561  0.33892361
   0.44449196  0.55679492  0.22640403
   0.66934917  0.33584960  0.45302739
   0.88835293  0.44550296  0.34001487
   0.77726174  0.55599856  0.22688760
  -0.00016660  0.66888318  0.45240146
   0.22277580  0.77801859  0.34040136
   0.11010274  0.88804984  0.22705821
   0.33276436  0.67296646  0.45498754
   0.55534973  0.77939948  0.34008453
   0.44392993  0.88945149  0.22694001
   0.67093160  0.67294537  0.45501330
   0.88652075  0.77805350  0.34043355
   0.77772552  0.88946025  0.22695427
   0.33189638  0.33308506  0.45356135
   0.43847452  0.54680025  0.50836086
Direct configuration=    12
   0.22222222  0.11111111  0.00000000
   0.22222222  0.44444444  0.00000000
   0.22222222  0.77777778  0.00000000
   0.55555556  0.11111111  0.00000000
   0.55555556  0.44444444  0.00000000
   0.55555556  0.77777778  0.00000000
   0.88888889  0.11111111  0.00000000
   0.88888889  0.44444444  0.00000000
   0.88888889  0.77777778  0.00000000
   0.00000000  0.00000000  0.11363913
   0.00000000  0.33333333  0.11363913
   0.00000000  0.66666667  0.11363913
   0.33333333  0.00000000  0.11363913
   0.33333333  0.33333333  0.11363913
   0.33333333  0.66666667  0.11363913
   0.66666667  0.00000000  0.11363913
   0.66666667  0.33333333  0.11363913
   0.66666667  0.66666667  0.11363913
   0.99828960  0.99952882  0.45171249
   0.22073915  0.11021464  0.33793483
   0.11008475  0.22204796  0.22595404
   0.33211006  0.99955538  0.45166867
   0.55476767  0.11271360  0.33969089
   0.44424834  0.22209627  0.22598852
   0.66794136  0.00504852  0.45154384
   0.88927144  0.11270157  0.33970088
   0.77752483  0.22277180  0.22679935
   0.99721674  0.33575814  0.45288361
   0.22164337  0.44580124  0.33876166
   0.11088904  0.55602219  0.22678602
   0.55549752  0.44583052  0.33878874
   0.44448433  0.55675407  0.22635140
   0.66937997  0.33578030  0.45288538
   0.88836524  0.44546599  0.33993064
   0.77735464  0.55604370  0.22681288
  -0.00013521  0.66886123  0.45225417
   0.22282681  0.77810503  0.34030020
   0.11014023  0.88807950  0.22691490
   0.33275729  0.67274159  0.45481731
   0.55534277  0.77932613  0.33997669
   0.44391014  0.88937515  0.22686139
   0.67078876  0.67272107  0.45484543
   0.88661406  0.77813376  0.34033501
   0.77770776  0.88938571  0.22687220
   0.33215428  0.33351470  0.45341787
   0.43882409  0.54740350  0.50804741
Direct configuration=    13
   0.22222222  0.11111111  0.00000000
   0.22222222  0.44444444  0.00000000
   0.22222222  0.77777778  0.00000000
   0.55555556  0.11111111  0.00000000
   0.55555556  0.44444444  0.00000000
   0.55555556  0.77777778  0.00000000
   0.88888889  0.11111111  0.00000000
   0.88888889  0.44444444  0.00000000
   0.88888889  0.77777778  0.00000000
   0.00000000  0.00000000  0.11363913
   0.00000000  0.33333333  0.11363913
   0.00000000  0.66666667  0.11363913
   0.33333333  0.00000000  0.11363913
   0.33333333  0.33333333  0.11363913
   0.33333333  0.66666667  0.11363913
   0.66666667  0.00000000  0.11363913
   0.66666667  0.33333333  0.11363913
   0.66666667  0.66666667  0.11363913
   0.99825550  0.99941321  0.45163295
   0.22075826  0.11022208  0.33785669
   0.11004499  0.22201348  0.22592063
   0.33206763  0.99944308  0.45158788
   0.55476572  0.11266762  0.33965508
   0.44427717  0.22206241  0.22595487
   0.66792583  0.00498093  0.45147064
   0.88925954  0.11264895  0.33966286
   0.77753331  0.22276466  0.22677490
   0.99719848  0.33571974  0.45280764
   0.22160543  0.44580169  0.33869046
   0.11088523  0.55604707  0.22674769
   0.55556718  0.44583309  0.33871800
   0.44448032  0.55673265  0.22632379
   0.66939612  0.33574395  0.45281089
   0.88837170  0.44544659  0.33988647
   0.77740336  0.55606737  0.22677369
  -0.00011874  0.66884972  0.45217691
   0.22285356  0.77815036  0.34024715
   0.11015989  0.88809506  0.22683974
   0.33275358  0.67262365  0.45472802
   0.55533912  0.77928765  0.33992012
   0.44389976  0.88933511  0.22682015
   0.67071384  0.67260343  0.45475739
   0.88666299  0.77817585  0.34028332
   0.77769844  0.88934661  0.22682915
   0.33228955  0.33374004  0.45334261
   0.43900744  0.54771991  0.50788301
Direct configuration=    14
   0.22222222  0.11111111  0.00000000
   0.22222222  0.44444444  0.00000000
   0.22222222  0.77777778  0.00000000
   0.55555556  0.11111111  0.00000000
   0.55555556  0.44444444  0.00000000
   0.55555556  0.77777778  0.00000000
   0.88888889  0.11111111  0.00000000
   0.88888889  0.44444444  0.00000000
   0.88888889  0.77777778  0.00000000
   0.00000000  0.00000000  0.11363913
   0.00000000  0.33333333  0.11363913
   0.00000000  0.66666667  0.11363913
   0.33333333  0.00000000  0.11363913
   0.33333333  0.33333333  0.11363913
   0.33333333  0.66666667  0.11363913
   0.66666667  0.00000000  0.11363913
   0.66666667  0.33333333  0.11363913
   0.66666667  0.66666667  0.11363913
   0.99818730  0.99918197  0.45147387
   0.22079648  0.11023696  0.33770041
   0.10996546  0.22194450  0.22585381
   0.33198275  0.99921848  0.45142630
   0.55476181  0.11257565  0.33958346
   0.44433484  0.22199469  0.22588757
   0.66789479  0.00484575  0.45132423
   0.88923576  0.11254370  0.33958682
   0.77755026  0.22275037  0.22672599
   0.99716195  0.33564296  0.45265571
   0.22152956  0.44580258  0.33854806
   0.11087759  0.55609683  0.22667103
   0.55570651  0.44583824  0.33857652
   0.44447231  0.55668980  0.22626858
   0.66942843  0.33567124  0.45266192
   0.88838461  0.44540781  0.33979812
   0.77750081  0.55611472  0.22669531
  -0.00008582  0.66882670  0.45202241
   0.22290706  0.77824103  0.34014103
   0.11019921  0.88812618  0.22668941
   0.33274616  0.67238777  0.45454945
   0.55533182  0.77921070  0.33980700
   0.44387899  0.88925503  0.22673767
   0.67056401  0.67236815  0.45458129
   0.88676087  0.77826004  0.34017995
   0.77767981  0.88926842  0.22674306
   0.33256009  0.33419074  0.45319209
   0.43937415  0.54835272  0.50755421
Direct configuration=    15
   0.22222222  0.11111111  0.00000000
   0.22222222  0.44444444  0.00000000
   0.22222222  0.77777778  0.00000000
   0.55555556  0.11111111  0.00000000
   0.55555556  0.44444444  0.00000000
   0.55555556  0.77777778  0.00000000
   0.88888889  0.11111111  0.00000000
   0.88888889  0.44444444  0.00000000
   0.88888889  0.77777778  0.00000000
   0.00000000  0.00000000  0.11363913
   0.00000000  0.33333333  0.11363913
   0.00000000  0.66666667  0.11363913
   0.33333333  0.00000000  0.11363913
   0.33333333  0.33333333  0.11363913
   0.33333333  0.66666667  0.11363913
   0.66666667  0.00000000  0.11363913
   0.66666667  0.33333333  0.11363913
   0.66666667  0.66666667  0.11363913
   0.99821439  0.99927381  0.45153705
   0.22078130  0.11023105  0.33776248
   0.10999705  0.22197190  0.22588035
   0.33201646  0.99930769  0.45149048
   0.55476337  0.11261218  0.33961191
   0.44431193  0.22202159  0.22591430
   0.66790712  0.00489944  0.45138238
   0.88924521  0.11258550  0.33961702
   0.77754353  0.22275605  0.22674541
   0.99717646  0.33567345  0.45271606
   0.22155969  0.44580223  0.33860462
   0.11088062  0.55607706  0.22670148
   0.55565117  0.44583620  0.33863271
   0.44447549  0.55670682  0.22629051
   0.66941560  0.33570012  0.45272109
   0.88837948  0.44542321  0.33983321
   0.77746211  0.55609591  0.22672644
  -0.00009890  0.66883585  0.45208377
   0.22288581  0.77820502  0.34018318
   0.11018359  0.88811382  0.22674912
   0.33274911  0.67248146  0.45462037
   0.55533472  0.77924127  0.33985193
   0.44388724  0.88928684  0.22677043
   0.67062352  0.67246160  0.45465123
   0.88672199  0.77822660  0.34022101
   0.77768721  0.88929948  0.22677725
   0.33245264  0.33401173  0.45325187
   0.43922850  0.54810138  0.50768480
Direct configuration=    16
   0.22222222  0.11111111  0.00000000
   0.22222222  0.44444444  0.00000000
   0.22222222  0.77777778  0.00000000
   0.55555556  0.11111111  0.00000000
   0.55555556  0.44444444  0.00000000
   0.55555556  0.77777778  0.00000000
   0.88888889  0.11111111  0.00000000
   0.88888889  0.44444444  0.00000000
   0.88888889  0.77777778  0.00000000
   0.00000000  0.00000000  0.11363913
   0.00000000  0.33333333  0.11363913
   0.00000000  0.66666667  0.11363913
   0.33333333  0.00000000  0.11363913
   0.33333333  0.33333333  0.11363913
   0.33333333  0.66666667  0.11363913
   0.66666667  0.00000000  0.11363913
   0.66666667  0.33333333  0.11363913
   0.66666667  0.66666667  0.11363913
   0.99809972  0.99912761  0.45146176
   0.22077845  0.11018449  0.33771684
   0.11000897  0.22202167  0.22582609
   0.33203886  0.99916488  0.45141203
   0.55479241  0.11262390  0.33960406
   0.44437334  0.22206194  0.22585638
   0.66797853  0.00499081  0.45124716
   0.88927180  0.11259025  0.33961010
   0.77751850  0.22268454  0.22675580
   0.99730293  0.33573959  0.45261804
   0.22148735  0.44578037  0.33849066
   0.11084778  0.55609785  0.22667269
   0.55574161  0.44581504  0.33852077
   0.44446625  0.55666288  0.22621161
   0.66941324  0.33576275  0.45262385
   0.88847475  0.44554181  0.33980517
   0.77753979  0.55611394  0.22669671
  -0.00008589  0.66881465  0.45198496
   0.22282202  0.77801205  0.34009965
   0.11020284  0.88811809  0.22665599
   0.33271329  0.67251399  0.45452802
   0.55542859  0.77938342  0.33975517
   0.44394848  0.88926206  0.22671237
   0.67073854  0.67248610  0.45455947
   0.88663427  0.77802256  0.34013825
   0.77762492  0.88927402  0.22671537
   0.33232510  0.33370034  0.45328187
   0.43940968  0.54838267  0.50757572
Direct configuration=    17
   0.22222222  0.11111111  0.00000000
   0.22222222  0.44444444  0.00000000
   0.22222222  0.77777778  0.00000000
   0.55555556  0.11111111  0.00000000
   0.55555556  0.44444444  0.00000000
   0.55555556  0.77777778  0.00000000
   0.88888889  0.11111111  0.00000000
   0.88888889  0.44444444  0.00000000
   0.88888889  0.77777778  0.00000000
   0.00000000  0.00000000  0.11363913
   0.00000000  0.33333333  0.11363913
   0.00000000  0.66666667  0.11363913
   0.33333333  0.00000000  0.11363913
   0.33333333  0.33333333  0.11363913
   0.33333333  0.66666667  0.11363913
   0.66666667  0.00000000  0.11363913
   0.66666667  0.33333333  0.11363913
   0.66666667  0.66666667  0.11363913
   0.99804305  0.99905536  0.45142455
   0.22077704  0.11016148  0.33769428
   0.11001486  0.22204627  0.22579927
   0.33204994  0.99909429  0.45137325
   0.55480677  0.11262969  0.33960018
   0.44440369  0.22208188  0.22582776
   0.66801383  0.00503597  0.45118033
   0.88928495  0.11259260  0.33960668
   0.77750614  0.22264919  0.22676093
   0.99736544  0.33577228  0.45256959
   0.22145159  0.44576957  0.33843433
   0.11083155  0.55610813  0.22665846
   0.55578631  0.44580458  0.33846544
   0.44446167  0.55664117  0.22617261
   0.66941208  0.33579370  0.45257579
   0.88852184  0.44560043  0.33979131
   0.77757819  0.55612286  0.22668201