  45  45   0   0
  0.2067561E+02  0.7654997E-09  0.7654997E-09  0.1833370E-08  0.1250000E-15
  1.000000000000000E-004
  CAR 
 unknown system                          
      8.11510289    -10.04053369  301      0.06371765      1.00000000
    -10.041  0.0000E+00  0.0000E+00
     -9.980  0.0000E+00  0.0000E+00
     -9.919  0.0000E+00  0.0000E+00
     -9.859 -0.2162E-31 -0.1309E-32
     -9.798 -0.2911E-27 -0.1762E-28
     -9.738 -0.1892E-23 -0.1145E-24
     -9.677 -0.5939E-20 -0.3595E-21
     -9.617 -0.8845E-17 -0.5357E-18
     -9.556 -0.6365E-14 -0.3857E-15
     -9.496 -0.2230E-11 -0.1353E-12
     -9.435 -0.3747E-09 -0.2281E-10
     -9.375 -0.3000E-07 -0.1839E-08
     -9.314 -0.1131E-05 -0.7027E-07
     -9.254 -0.1952E-04 -0.1252E-05
     -9.193 -0.1433E-03 -0.9925E-05
     -9.133 -0.3104E-03 -0.2871E-04
     -9.072  0.8717E-03  0.2404E-04
     -9.012  0.4938E-02  0.3229E-03
     -8.951  0.9126E-02  0.8752E-03
     -8.891  0.1048E-01  0.1510E-02
     -8.830  0.1027E-01  0.2131E-02
     -8.770  0.1045E-01  0.2763E-02
     -8.709  0.1002E-01  0.3370E-02
     -8.649  0.1029E-01  0.3993E-02
     -8.588  0.1100E-01  0.4658E-02
     -8.528  0.9327E-02  0.5223E-02
     -8.467  0.1068E-01  0.5869E-02
     -8.407  0.1188E-01  0.6588E-02
     -8.346  0.8896E-02  0.7126E-02
     -8.285  0.9763E-02  0.7717E-02
     -8.225  0.1286E-01  0.8495E-02
     -8.164  0.1043E-01  0.9127E-02
     -8.104  0.1001E-01  0.9732E-02
     -8.043  0.1814E-01  0.1083E-01
     -7.983  0.2445E-01  0.1231E-01
     -7.922  0.2107E-01  0.1358E-01
     -7.862  0.1832E-01  0.1469E-01
     -7.801  0.2146E-01  0.1599E-01
     -7.741  0.2542E-01  0.1753E-01
     -7.680  0.2415E-01  0.1899E-01
     -7.620  0.1717E-01  0.2003E-01
     -7.559  0.1857E-01  0.2116E-01
     -7.499  0.2629E-01  0.2275E-01
     -7.438  0.2464E-01  0.2424E-01
     -7.378  0.2164E-01  0.2555E-01
     -7.317  0.2145E-01  0.2685E-01
     -7.257  0.1977E-01  0.2804E-01
     -7.196  0.2359E-01  0.2947E-01
     -7.136  0.2700E-01  0.3110E-01
     -7.075  0.2482E-01  0.3260E-01
     -7.015  0.1996E-01  0.3381E-01
     -6.954  0.1747E-01  0.3487E-01
     -6.894  0.2548E-01  0.3641E-01
     -6.833  0.3381E-01  0.3846E-01
     -6.773  0.2874E-01  0.4020E-01
     -6.712  0.2550E-01  0.4174E-01
     -6.651  0.3200E-01  0.4368E-01
     -6.591  0.4059E-01  0.4613E-01
     -6.530  0.4372E-01  0.4878E-01
     -6.470  0.3602E-01  0.5096E-01
     -6.409  0.3209E-01  0.5290E-01
     -6.349  0.3672E-01  0.5512E-01
     -6.288  0.3747E-01  0.5739E-01
     -6.228  0.4134E-01  0.5989E-01
     -6.167  0.4136E-01  0.6240E-01
     -6.107  0.4197E-01  0.6494E-01
     -6.046  0.4376E-01  0.6758E-01
     -5.986  0.3736E-01  0.6985E-01
     -5.925  0.3820E-01  0.7216E-01
     -5.865  0.4680E-01  0.7499E-01
     -5.804  0.5079E-01  0.7806E-01
     -5.744  0.4839E-01  0.8099E-01
     -5.683  0.4194E-01  0.8353E-01
     -5.623  0.4242E-01  0.8610E-01
     -5.562  0.5387E-01  0.8936E-01
     -5.502  0.7004E-01  0.9360E-01
     -5.441  0.7400E-01  0.9807E-01
     -5.381  0.6083E-01  0.1018E+00
     -5.320  0.5854E-01  0.1053E+00
     -5.260  0.8595E-01  0.1105E+00
     -5.199  0.9979E-01  0.1165E+00
     -5.139  0.7986E-01  0.1214E+00
     -5.078  0.8564E-01  0.1266E+00
     -5.017  0.1341E+00  0.1347E+00
     -4.957  0.1590E+00  0.1443E+00
     -4.896  0.1542E+00  0.1536E+00
     -4.836  0.1740E+00  0.1642E+00
     -4.775  0.2072E+00  0.1767E+00
     -4.715  0.2239E+00  0.1902E+00
     -4.654  0.2296E+00  0.2041E+00
     -4.594  0.2392E+00  0.2186E+00
     -4.533  0.2316E+00  0.2326E+00
     -4.473  0.2049E+00  0.2450E+00
     -4.412  0.2082E+00  0.2576E+00
     -4.352  0.2952E+00  0.2755E+00
     -4.291  0.4051E+00  0.3000E+00
     -4.231  0.4516E+00  0.3273E+00
     -4.170  0.4834E+00  0.3566E+00
     -4.110  0.5032E+00  0.3870E+00
     -4.049  0.4667E+00  0.4153E+00
     -3.989  0.4365E+00  0.4417E+00
     -3.928  0.4350E+00  0.4680E+00
     -3.868  0.4063E+00  0.4926E+00
     -3.807  0.3813E+00  0.5157E+00
     -3.747  0.4005E+00  0.5399E+00
     -3.686  0.3923E+00  0.5637E+00
     -3.626  0.3616E+00  0.5856E+00
     -3.565  0.4443E+00  0.6125E+00
     -3.505  0.6230E+00  0.6502E+00
     -3.444  0.6453E+00  0.6892E+00
     -3.383  0.5385E+00  0.7218E+00
     -3.323  0.4908E+00  0.7515E+00
     -3.262  0.5164E+00  0.7828E+00
     -3.202  0.5807E+00  0.8179E+00
     -3.141  0.6262E+00  0.8558E+00
     -3.081  0.6282E+00  0.8938E+00
     -3.020  0.6582E+00  0.9336E+00
     -2.960  0.8174E+00  0.9831E+00
     -2.899  0.1009E+01  0.1044E+01
     -2.839  0.1008E+01  0.1105E+01
     -2.778  0.9276E+00  0.1161E+01
     -2.718  0.8854E+00  0.1215E+01
     -2.657  0.8838E+00  0.1268E+01
     -2.597  0.8438E+00  0.1319E+01
     -2.536  0.7969E+00  0.1368E+01
     -2.476  0.7774E+00  0.1415E+01
     -2.415  0.7335E+00  0.1459E+01
     -2.355  0.6642E+00  0.1499E+01
     -2.294  0.6638E+00  0.1539E+01
     -2.234  0.7621E+00  0.1586E+01
     -2.173  0.8093E+00  0.1635E+01
     -2.113  0.8225E+00  0.1684E+01
     -2.052  0.8322E+00  0.1735E+01
     -1.992  0.8175E+00  0.1784E+01
     -1.931  0.8387E+00  0.1835E+01
     -1.870  0.8736E+00  0.1888E+01
     -1.810  0.8809E+00  0.1941E+01
     -1.749  0.9339E+00  0.1998E+01
     -1.689  0.1065E+01  0.2062E+01
     -1.628  0.1217E+01  0.2136E+01
     -1.568  0.1227E+01  0.2210E+01
     -1.507  0.9391E+00  0.2267E+01
     -1.447  0.5135E+00  0.2298E+01
     -1.386  0.2374E+00  0.2312E+01
     -1.326  0.1410E+00  0.2321E+01
     -1.265  0.1024E+00  0.2327E+01
     -1.205  0.9215E-01  0.2333E+01
     -1.144  0.1114E+00  0.2339E+01
     -1.084  0.1244E+00  0.2347E+01
     -1.023  0.1177E+00  0.2354E+01
     -0.963  0.1148E+00  0.2361E+01
     -0.902  0.1357E+00  0.2369E+01
     -0.842  0.1475E+00  0.2378E+01
     -0.781  0.1418E+00  0.2387E+01
     -0.721  0.1410E+00  0.2395E+01
     -0.660  0.1364E+00  0.2403E+01
     -0.600  0.1207E+00  0.2411E+01
     -0.539  0.9880E-01  0.2417E+01
     -0.479  0.8557E-01  0.2422E+01
     -0.418  0.7927E-01  0.2427E+01
     -0.358  0.8192E-01  0.2432E+01
     -0.297  0.9327E-01  0.2437E+01
     -0.236  0.9383E-01  0.2443E+01
     -0.176  0.8389E-01  0.2448E+01
     -0.115  0.6934E-01  0.2452E+01
     -0.055  0.5519E-01  0.2456E+01
      0.006  0.6366E-01  0.2459E+01
      0.066  0.9677E-01  0.2465E+01
      0.127  0.1072E+00  0.2472E+01
      0.187  0.8913E-01  0.2477E+01
      0.248  0.6625E-01  0.2481E+01
      0.308  0.5090E-01  0.2484E+01
      0.369  0.5072E-01  0.2487E+01
      0.429  0.5936E-01  0.2491E+01
      0.490  0.7912E-01  0.2496E+01
      0.550  0.9384E-01  0.2501E+01
      0.611  0.9054E-01  0.2507E+01
      0.671  0.7972E-01  0.2512E+01
      0.732  0.6544E-01  0.2516E+01
      0.792  0.5550E-01  0.2519E+01
      0.853  0.5771E-01  0.2522E+01
      0.913  0.5707E-01  0.2526E+01
      0.974  0.5231E-01  0.2529E+01
      1.034  0.6987E-01  0.2533E+01
      1.095  0.9753E-01  0.2539E+01
      1.155  0.1042E+00  0.2546E+01
      1.216  0.8860E-01  0.2551E+01
      1.276  0.5575E-01  0.2554E+01
      1.337  0.2847E-01  0.2556E+01
      1.398  0.3168E-01  0.2558E+01
      1.458  0.5110E-01  0.2561E+01
      1.519  0.7626E-01  0.2566E+01
      1.579  0.9897E-01  0.2572E+01
      1.640  0.9202E-01  0.2577E+01
      1.700  0.7689E-01  0.2582E+01
      1.761  0.7343E-01  0.2586E+01
      1.821  0.6204E-01  0.2590E+01
      1.882  0.5062E-01  0.2593E+01
      1.942  0.5397E-01  0.2596E+01
      2.003  0.7085E-01  0.2601E+01
      2.063  0.7575E-01  0.2605E+01
      2.124  0.6770E-01  0.2609E+01
      2.184  0.7699E-01  0.2614E+01
      2.245  0.7986E-01  0.2619E+01
      2.305  0.6238E-01  0.2623E+01
      2.366  0.5009E-01  0.2626E+01
      2.426  0.5107E-01  0.2629E+01
      2.487  0.6736E-01  0.2633E+01
      2.547  0.6902E-01  0.2637E+01
      2.608  0.4329E-01  0.2640E+01
      2.668  0.3744E-01  0.2642E+01
      2.729  0.6074E-01  0.2646E+01
      2.789  0.6846E-01  0.2650E+01
      2.850  0.5938E-01  0.2653E+01
      2.910  0.6143E-01  0.2657E+01
      2.971  0.6183E-01  0.2661E+01
      3.032  0.5288E-01  0.2664E+01
      3.092  0.5164E-01  0.2667E+01
      3.153  0.5358E-01  0.2670E+01
      3.213  0.5744E-01  0.2674E+01
      3.274  0.6318E-01  0.2678E+01
      3.334  0.5987E-01  0.2681E+01
      3.395  0.5805E-01  0.2685E+01
      3.455  0.4905E-01  0.2688E+01
      3.516  0.3662E-01  0.2690E+01
      3.576  0.5147E-01  0.2693E+01
      3.637  0.6907E-01  0.2697E+01
      3.697  0.6082E-01  0.2701E+01
      3.758  0.5099E-01  0.2704E+01
      3.818  0.4526E-01  0.2707E+01
      3.879  0.4047E-01  0.2709E+01
      3.939  0.4263E-01  0.2712E+01
      4.000  0.5179E-01  0.2715E+01
      4.060  0.5553E-01  0.2718E+01
      4.121  0.4766E-01  0.2721E+01
      4.181  0.4083E-01  0.2724E+01
      4.242  0.4837E-01  0.2727E+01
      4.302  0.6694E-01  0.2731E+01
      4.363  0.7228E-01  0.2735E+01
      4.423  0.6791E-01  0.2739E+01
      4.484  0.6943E-01  0.2743E+01
      4.544  0.6991E-01  0.2747E+01
      4.605  0.6562E-01  0.2751E+01
      4.666  0.6075E-01  0.2755E+01
      4.726  0.6412E-01  0.2759E+01
      4.787  0.6842E-01  0.2763E+01
      4.847  0.6801E-01  0.2767E+01
      4.908  0.6474E-01  0.2771E+01
      4.968  0.5579E-01  0.2775E+01
      5.029  0.4833E-01  0.2777E+01
      5.089  0.5133E-01  0.2781E+01
      5.150  0.6751E-01  0.2785E+01
      5.210  0.8728E-01  0.2790E+01
      5.271  0.1057E+00  0.2796E+01
      5.331  0.1045E+00  0.2803E+01
      5.392  0.8752E-01  0.2808E+01
      5.452  0.8603E-01  0.2813E+01
      5.513  0.8806E-01  0.2819E+01
      5.573  0.8238E-01  0.2823E+01
      5.634  0.8502E-01  0.2829E+01
      5.694  0.9291E-01  0.2834E+01
      5.755  0.9326E-01  0.2840E+01
      5.815  0.8612E-01  0.2845E+01
      5.876  0.8509E-01  0.2850E+01
      5.936  0.9128E-01  0.2856E+01
      5.997  0.1059E+00  0.2862E+01
      6.057  0.1209E+00  0.2870E+01
      6.118  0.1149E+00  0.2876E+01
      6.179  0.1001E+00  0.2883E+01
      6.239  0.1024E+00  0.2889E+01
      6.300  0.1105E+00  0.2895E+01
      6.360  0.1116E+00  0.2902E+01
      6.421  0.1079E+00  0.2909E+01
      6.481  0.9698E-01  0.2915E+01
      6.542  0.9167E-01  0.2920E+01
      6.602  0.9661E-01  0.2926E+01
      6.663  0.9932E-01  0.2932E+01
      6.723  0.9650E-01  0.2938E+01
      6.784  0.9840E-01  0.2944E+01
      6.844  0.9788E-01  0.2950E+01
      6.905  0.7848E-01  0.2954E+01
      6.965  0.5238E-01  0.2958E+01
      7.026  0.2770E-01  0.2959E+01
      7.086  0.9270E-02  0.2960E+01
      7.147  0.2267E-02  0.2960E+01
      7.207  0.5680E-03  0.2960E+01
      7.268 -0.1556E-03  0.2960E+01
      7.328 -0.1442E-03  0.2960E+01
      7.389 -0.2799E-04  0.2960E+01
      7.449 -0.2090E-05  0.2960E+01
      7.510 -0.6767E-07  0.2960E+01
      7.570 -0.9938E-09  0.2960E+01
      7.631 -0.6765E-11  0.2960E+01
      7.691 -0.2160E-13  0.2960E+01
      7.752 -0.3213E-16  0.2960E+01
      7.813  0.0000E+00  0.2960E+01
      7.873  0.0000E+00  0.2960E+01
      7.934  0.0000E+00  0.2960E+01
      7.994  0.0000E+00  0.2960E+01
      8.055  0.0000E+00  0.2960E+01
      8.115  0.0000E+00  0.2960E+01
