       N       E                     dE             d eps       ncg     rms          rms(c)
DAV:   1     0.393443648060E+04    0.39344E+04   -0.18994E+05 50320   0.183E+03
DAV:   2     0.371893516622E+03   -0.35625E+04   -0.34008E+04 50320   0.431E+02
DAV:   3    -0.779789275258E+02   -0.44987E+03   -0.40996E+03 50352   0.179E+02
DAV:   4    -0.989266234221E+02   -0.20948E+02   -0.20564E+02 53768   0.445E+01
DAV:   5    -0.991287265591E+02   -0.20210E+00   -0.20163E+00 53832   0.410E+00
DAV:   6    -0.991328291204E+02   -0.41026E-02   -0.41023E-02 73912   0.410E-01
DAV:   7    -0.991328701784E+02   -0.41058E-04   -0.41057E-04 55856   0.347E-02
DAV:   8    -0.991328719523E+02   -0.17739E-05   -0.17740E-05 75072   0.618E-03
DAV:   9    -0.991328719961E+02   -0.43823E-07   -0.43611E-07 36952   0.697E-04
DAV:  10    -0.991328719981E+02   -0.19281E-08   -0.22449E-08 31936   0.221E-04    0.462E+01
RMM:  11    -0.106261997701E+03   -0.71291E+01   -0.45215E+02 50385   0.766E+01    0.427E+01
RMM:  12    -0.135223830665E+03   -0.28962E+02   -0.17485E+02 50320   0.343E+01    0.448E+01
RMM:  13    -0.866066071125E+02    0.48617E+02   -0.29033E+01 50407   0.151E+01    0.233E+01
RMM:  14    -0.675121802302E+02    0.19094E+02   -0.13295E+01 50521   0.107E+01    0.122E+01
RMM:  15    -0.649490287314E+02    0.25632E+01   -0.23255E+00 50561   0.427E+00    0.898E+00
RMM:  16    -0.623235530675E+02    0.26255E+01   -0.31053E+00 50580   0.393E+00    0.300E+00
RMM:  17    -0.621194361580E+02    0.20412E+00   -0.16667E-01 50538   0.834E-01    0.187E+00
RMM:  18    -0.621139951888E+02    0.54410E-02   -0.20742E-01 50664   0.146E+00    0.228E+00
RMM:  19    -0.620013163463E+02    0.11268E+00   -0.12792E-01 50540   0.951E-01    0.637E-01
RMM:  20    -0.619930191911E+02    0.82972E-02   -0.10324E-02 50764   0.310E-01    0.347E-01
RMM:  21    -0.619879870890E+02    0.50321E-02   -0.12348E-02 50601   0.317E-01    0.205E-01
RMM:  22    -0.619855782953E+02    0.24088E-02   -0.14082E-03 50697   0.120E-01    0.109E-01
RMM:  23    -0.619825178534E+02    0.30604E-02   -0.97575E-04 50512   0.794E-02    0.984E-02
RMM:  24    -0.619803238537E+02    0.21940E-02   -0.42642E-04 50534   0.576E-02    0.518E-02
RMM:  25    -0.619788131130E+02    0.15107E-02   -0.29901E-04 50580   0.451E-02    0.599E-02
RMM:  26    -0.619783964918E+02    0.41662E-03   -0.15144E-04 50428   0.204E-02    0.359E-02
RMM:  27    -0.619788562407E+02   -0.45975E-03   -0.13893E-04 50539   0.215E-02    0.369E-02
RMM:  28    -0.619791554064E+02   -0.29917E-03   -0.34035E-05 50519   0.125E-02    0.349E-02
RMM:  29    -0.619792994062E+02   -0.14400E-03   -0.33400E-05 50416   0.968E-03    0.204E-02
RMM:  30    -0.619794115091E+02   -0.11210E-03   -0.34679E-05 50320   0.762E-03    0.147E-02
RMM:  31    -0.619794207026E+02   -0.91934E-05   -0.51151E-06 50122   0.456E-03    0.502E-03
RMM:  32    -0.619794255889E+02   -0.48863E-05   -0.36414E-06 49981   0.399E-03    0.626E-03
RMM:  33    -0.619794250160E+02    0.57288E-06   -0.42001E-07 31259   0.109E-03    0.152E-03
RMM:  34    -0.619794251464E+02   -0.13033E-06   -0.45241E-08 28821   0.527E-04    0.113E-03
RMM:  35    -0.619794252456E+02   -0.99244E-07   -0.20333E-08 28294   0.349E-04
   1 F= -.61979425E+02 E0= -.61974670E+02  d E =-.619794E+02
       N       E                     dE             d eps       ncg     rms          rms(c)
DAV:   1    -0.619801190811E+02   -0.69393E-03   -0.47182E-02 51552   0.329E-01    0.249E-02
RMM:   2    -0.619802397946E+02   -0.12071E-03   -0.12135E-03 50818   0.675E-02    0.323E-02
RMM:   3    -0.619802613091E+02   -0.21514E-04   -0.25807E-04 66606   0.196E-02    0.302E-02
RMM:   4    -0.619802437695E+02    0.17540E-04   -0.10899E-05 51314   0.806E-03    0.182E-02
RMM:   5    -0.619802383730E+02    0.53965E-05   -0.23913E-06 50204   0.367E-03    0.148E-02
RMM:   6    -0.619802341560E+02    0.42170E-05   -0.63524E-06 50248   0.438E-03    0.102E-02
RMM:   7    -0.619802323699E+02    0.17860E-05   -0.21109E-05 51432   0.651E-03    0.310E-03
RMM:   8    -0.619802333516E+02   -0.98172E-06   -0.57209E-06 60048   0.303E-03    0.554E-03
RMM:   9    -0.619802328625E+02    0.48909E-06   -0.27734E-07 30267   0.131E-03    0.433E-03
RMM:  10    -0.619802323818E+02    0.48077E-06   -0.10233E-06 36534   0.134E-03    0.193E-03
RMM:  11    -0.619802322908E+02    0.90979E-07   -0.84874E-07 33818   0.118E-03
   2 F= -.61980232E+02 E0= -.61975487E+02  d E =-.807045E-03
       N       E                     dE             d eps       ncg     rms          rms(c)
DAV:   1    -0.619811191507E+02   -0.88677E-03   -0.42473E-01 50832   0.987E-01    0.765E-02
RMM:   2    -0.619822631832E+02   -0.11440E-02   -0.11064E-02 50844   0.203E-01    0.110E-01
RMM:   3    -0.619824086476E+02   -0.14546E-03   -0.23640E-03 65725   0.601E-02    0.885E-02
RMM:   4    -0.619822366660E+02    0.17198E-03   -0.10554E-04 51367   0.254E-02    0.548E-02
RMM:   5    -0.619821884934E+02    0.48173E-04   -0.22886E-05 50766   0.112E-02    0.443E-02
RMM:   6    -0.619821488654E+02    0.39628E-04   -0.63014E-05 50432   0.139E-02    0.304E-02
RMM:   7    -0.619821319032E+02    0.16962E-04   -0.19294E-04 51639   0.197E-02    0.943E-03
RMM:   8    -0.619821379011E+02   -0.59979E-05   -0.42876E-05 64544   0.874E-03    0.156E-02
RMM:   9    -0.619821340463E+02    0.38548E-05   -0.24988E-06 50324   0.387E-03    0.120E-02
RMM:  10    -0.619821302400E+02    0.38063E-05   -0.87189E-06 48299   0.353E-03    0.489E-03
RMM:  11    -0.619821298621E+02    0.37794E-06   -0.60660E-06 53551   0.281E-03    0.654E-04
RMM:  12    -0.619821298995E+02   -0.37377E-07   -0.29632E-07 31323   0.107E-03
   3 F= -.61982130E+02 E0= -.61977415E+02  d E =-.270465E-02
       N       E                     dE             d eps       ncg     rms          rms(c)
DAV:   1    -0.619794696186E+02    0.26602E-02   -0.16986E+00 50368   0.198E+00    0.157E-01
RMM:   2    -0.619841883464E+02   -0.47187E-02   -0.45175E-02 50842   0.412E-01    0.235E-01
RMM:   3    -0.619846664727E+02   -0.47813E-03   -0.96933E-03 65182   0.122E-01    0.175E-01
RMM:   4    -0.619839840476E+02    0.68243E-03   -0.45209E-04 51426   0.521E-02    0.111E-01
RMM:   5    -0.619837742463E+02    0.20980E-03   -0.97736E-05 50748   0.232E-02    0.884E-02
RMM:   6    -0.619836185356E+02    0.15571E-03   -0.24325E-04 50472   0.278E-02    0.616E-02
RMM:   7    -0.619835443384E+02    0.74197E-04   -0.79249E-04 51567   0.398E-02    0.194E-02
RMM:   8    -0.619835651697E+02   -0.20831E-04   -0.16576E-04 63365   0.180E-02    0.303E-02
RMM:   9    -0.619835503592E+02    0.14811E-04   -0.10644E-05 50683   0.801E-03    0.231E-02
RMM:  10    -0.619835365781E+02    0.13781E-04   -0.30730E-05 50273   0.679E-03    0.987E-03
RMM:  11    -0.619835351876E+02    0.13905E-05   -0.22329E-05 59769   0.537E-03    0.127E-03
RMM:  12    -0.619835353013E+02   -0.11373E-06   -0.11338E-06 40134   0.185E-03    0.129E-03
RMM:  13    -0.619835353072E+02   -0.59226E-08   -0.17293E-07 29361   0.969E-04
   4 F= -.61983535E+02 E0= -.61978885E+02  d E =-.411006E-02
       N       E                     dE             d eps       ncg     rms          rms(c)
DAV:   1    -0.619840636265E+02   -0.52833E-03   -0.18380E-01 50976   0.803E-01    0.398E-02
RMM:   2    -0.619842919501E+02   -0.22832E-03   -0.21239E-03 50543   0.118E-01    0.632E-02
RMM:   3    -0.619842920061E+02   -0.56039E-07   -0.45337E-04 65053   0.282E-02    0.365E-02
RMM:   4    -0.619842702218E+02    0.21784E-04   -0.27212E-05 51309   0.129E-02    0.272E-02
RMM:   5    -0.619842511756E+02    0.19046E-04   -0.84713E-06 50474   0.700E-03    0.196E-02
RMM:   6    -0.619842420295E+02    0.91462E-05   -0.44395E-05 50411   0.125E-02    0.125E-02
RMM:   7    -0.619842404406E+02    0.15889E-05   -0.27968E-05 52158   0.103E-02    0.640E-03
RMM:   8    -0.619842398741E+02    0.56654E-06   -0.21502E-06 51677   0.336E-03    0.550E-03
RMM:   9    -0.619842392740E+02    0.60006E-06   -0.60224E-07 34386   0.177E-03    0.379E-03
RMM:  10    -0.619842388531E+02    0.42087E-06   -0.12873E-06 36665   0.144E-03    0.117E-03
RMM:  11    -0.619842388489E+02    0.42201E-08   -0.55534E-07 31251   0.104E-03
   5 F= -.61984239E+02 E0= -.61979601E+02  d E =-.703542E-03
       N       E                     dE             d eps       ncg     rms          rms(c)
DAV:   1    -0.619845318880E+02   -0.29303E-03   -0.46414E-01 50352   0.128E+00    0.634E-02
RMM:   2    -0.619851138355E+02   -0.58195E-03   -0.53906E-03 50545   0.187E-01    0.101E-01
RMM:   3    -0.619851103835E+02    0.34520E-05   -0.11513E-03 64940   0.449E-02    0.578E-02
RMM:   4    -0.619850550794E+02    0.55304E-04   -0.68928E-05 51337   0.204E-02    0.434E-02
RMM:   5    -0.619850069126E+02    0.48167E-04   -0.21203E-05 50584   0.111E-02    0.313E-02
RMM:   6    -0.619849833036E+02    0.23609E-04   -0.11536E-04 50390   0.198E-02    0.197E-02
RMM:   7    -0.619849793656E+02    0.39381E-05   -0.69753E-05 52285   0.162E-02    0.103E-02
RMM:   8    -0.619849778085E+02    0.15570E-05   -0.52699E-06 51919   0.527E-03    0.875E-03
RMM:   9    -0.619849763307E+02    0.14778E-05   -0.16380E-06 49358   0.281E-03    0.604E-03
RMM:  10    -0.619849752741E+02    0.10566E-05   -0.37636E-06 44557   0.219E-03    0.146E-03
RMM:  11    -0.619849753131E+02   -0.39014E-07   -0.11827E-06 34671   0.131E-03    0.669E-04
RMM:  12    -0.619849753180E+02   -0.49185E-08   -0.83537E-08 27793   0.876E-04
   6 F= -.61984975E+02 E0= -.61980360E+02  d E =-.144001E-02
       N       E                     dE             d eps       ncg     rms          rms(c)
DAV:   1    -0.619832929613E+02    0.16824E-02   -0.18569E+00 50336   0.255E+00    0.129E-01
RMM:   2    -0.619856731022E+02   -0.23801E-02   -0.21870E-02 50530   0.377E-01    0.209E-01
RMM:   3    -0.619856270141E+02    0.46088E-04   -0.46865E-03 64544   0.910E-02    0.115E-01
RMM:   4    -0.619854010407E+02    0.22597E-03   -0.28669E-04 51362   0.413E-02    0.875E-02
RMM:   5    -0.619852025687E+02    0.19847E-03   -0.86829E-05 50607   0.224E-02    0.627E-02
RMM:   6    -0.619851079070E+02    0.94662E-04   -0.45975E-04 50400   0.392E-02    0.393E-02
RMM:   7    -0.619850920868E+02    0.15820E-04   -0.27648E-04 52260   0.322E-02    0.208E-02
RMM:   8    -0.619850856640E+02    0.64228E-05   -0.20930E-05 52565   0.104E-02    0.175E-02
RMM:   9    -0.619850799496E+02    0.57144E-05   -0.65625E-06 50317   0.568E-03    0.121E-02
RMM:  10    -0.619850758367E+02    0.41129E-05   -0.14864E-05 49709   0.441E-03    0.301E-03
RMM:  11    -0.619850760372E+02   -0.20052E-06   -0.53651E-06 49983   0.254E-03    0.144E-03
RMM:  12    -0.619850760276E+02    0.96188E-08   -0.14329E-07 29686   0.101E-03
   7 F= -.61985076E+02 E0= -.61980506E+02  d E =-.154072E-02
       N       E                     dE             d eps       ncg     rms          rms(c)
DAV:   1    -0.619849022488E+02    0.17379E-03   -0.37638E-01 50352   0.115E+00    0.560E-02
RMM:   2    -0.619853483950E+02   -0.44615E-03   -0.42836E-03 50543   0.168E-01    0.829E-02
RMM:   3    -0.619853666329E+02   -0.18238E-04   -0.90870E-04 65439   0.398E-02    0.531E-02
RMM:   4    -0.619853245701E+02    0.42063E-04   -0.53601E-05 51302   0.182E-02    0.387E-02
RMM:   5    -0.619852857419E+02    0.38828E-04   -0.17176E-05 50560   0.100E-02    0.278E-02
RMM:   6    -0.619852674749E+02    0.18267E-04   -0.82281E-05 50411   0.177E-02    0.185E-02
RMM:   7    -0.619852631261E+02    0.43489E-05   -0.61789E-05 51798   0.154E-02    0.876E-03
RMM:   8    -0.619852622149E+02    0.91120E-06   -0.54969E-06 53778   0.496E-03    0.816E-03
RMM:   9    -0.619852609740E+02    0.12408E-05   -0.11740E-06 48370   0.248E-03    0.578E-03
RMM:  10    -0.619852602414E+02    0.73262E-06   -0.16593E-06 38087   0.157E-03    0.280E-03
RMM:  11    -0.619852601475E+02    0.93954E-07   -0.19922E-06 42154   0.173E-03    0.589E-04
RMM:  12    -0.619852601679E+02   -0.20460E-07   -0.15368E-07 29209   0.927E-04
   8 F= -.61985260E+02 E0= -.61980669E+02  d E =-.172486E-02
       N       E                     dE             d eps       ncg     rms          rms(c)
DAV:   1    -0.619854430311E+02   -0.18288E-03   -0.81016E-02 50512   0.570E-01    0.210E-02
RMM:   2    -0.619854843762E+02   -0.41345E-04   -0.41577E-04 50455   0.731E-02    0.298E-02
RMM:   3    -0.619854795495E+02    0.48267E-05   -0.47898E-05 54058   0.119E-02    0.166E-02
RMM:   4    -0.619854774730E+02    0.20764E-05   -0.95118E-06 50762   0.792E-03    0.139E-02
RMM:   5    -0.619854701226E+02    0.73504E-05   -0.52201E-06 50513   0.565E-03    0.669E-03
RMM:   6    -0.619854696116E+02    0.51105E-06   -0.55206E-06 50629   0.649E-03    0.628E-03
RMM:   7    -0.619854688045E+02    0.80711E-06   -0.23365E-06 50610   0.467E-03    0.113E-03
RMM:   8    -0.619854688095E+02   -0.50641E-08   -0.15019E-07 28243   0.112E-03
   9 F= -.61985469E+02 E0= -.61980877E+02  d E =-.208642E-03
       N       E                     dE             d eps       ncg     rms          rms(c)
DAV:   1    -0.619855331804E+02   -0.64376E-04   -0.26320E-01 50352   0.103E+00    0.378E-02
RMM:   2    -0.619856684401E+02   -0.13526E-03   -0.13520E-03 50436   0.132E-01    0.540E-02
RMM:   3    -0.619856520217E+02    0.16418E-04   -0.15586E-04 54109   0.216E-02    0.298E-02
RMM:   4    -0.619856448027E+02    0.72190E-05   -0.30637E-05 50910   0.142E-02    0.250E-02
RMM:   5    -0.619856215169E+02    0.23286E-04   -0.16732E-05 50565   0.101E-02    0.122E-02
RMM:   6    -0.619856198740E+02    0.16429E-05   -0.18089E-05 50762   0.117E-02    0.114E-02
RMM:   7    -0.619856171640E+02    0.27100E-05   -0.76810E-06 50846   0.844E-03    0.209E-03
RMM:   8    -0.619856171389E+02    0.25109E-07   -0.55659E-07 42973   0.204E-03
  10 F= -.61985617E+02 E0= -.61981024E+02  d E =-.356971E-03
       N       E                     dE             d eps       ncg     rms          rms(c)
DAV:   1    -0.619856791869E+02   -0.62023E-04   -0.53845E-02 50496   0.461E-01    0.174E-02
RMM:   2    -0.619857047951E+02   -0.25608E-04   -0.30172E-04 50572   0.560E-02    0.172E-02
RMM:   3    -0.619857108774E+02   -0.60822E-05   -0.47647E-05 59548   0.113E-02    0.180E-02
RMM:   4    -0.619857046913E+02    0.61860E-05   -0.55127E-06 50689   0.572E-03    0.108E-02
RMM:   5    -0.619857015362E+02    0.31552E-05   -0.28824E-06 50327   0.433E-03    0.660E-03
RMM:   6    -0.619857011465E+02    0.38972E-06   -0.46156E-06 50413   0.547E-03    0.666E-03
RMM:   7    -0.619857004735E+02    0.67295E-06   -0.32246E-06 50603   0.442E-03    0.127E-03
RMM:   8    -0.619857004552E+02    0.18255E-07   -0.19819E-07 29818   0.105E-03
  11 F= -.61985700E+02 E0= -.61981117E+02  d E =-.833163E-04
