unknown system                          
           1
     5.412900   -5.412900   -0.000000
     0.000000    5.412900   -5.412900
    10.584969   10.584969   10.584969
   Cu   Rh
  44   1
Direct configuration=     1
   0.22222222  0.11111111  0.00000000
   0.22222222  0.44444444  0.00000000
   0.22222222  0.77777778  0.00000000
   0.55555556  0.11111111  0.00000000
   0.55555556  0.44444444  0.00000000
   0.55555556  0.77777778  0.00000000
   0.88888889  0.11111111  0.00000000
   0.88888889  0.44444444  0.00000000
   0.88888889  0.77777778  0.00000000
   0.00000000  0.00000000  0.11363913
   0.00000000  0.33333333  0.11363913
   0.00000000  0.66666667  0.11363913
   0.33333333  0.00000000  0.11363913
   0.33333333  0.33333333  0.11363913
   0.33333333  0.66666667  0.11363913
   0.66666667  0.00000000  0.11363913
   0.66666667  0.33333333  0.11363913
   0.66666667  0.66666667  0.11363913
   0.99812173  0.99766504  0.45202130
   0.22296876  0.11187016  0.33885197
   0.11088820  0.22209931  0.22589260
   0.33368636  0.99764800  0.45225124
   0.55587035  0.11156162  0.33945346
   0.44497879  0.22210166  0.22588895
   0.66737786  0.00051300  0.45158301
   0.88961391  0.11160025  0.33940326
   0.77808600  0.22244502  0.22665503
   0.99810880  0.33417263  0.45216161
   0.22285453  0.44458611  0.33886336
   0.11161811  0.55544377  0.22657095
   0.55563393  0.44456141  0.33879481
   0.44493188  0.55619682  0.22588855
   0.67031799  0.33407511  0.45217802
   0.88925417  0.44466183  0.33914602
   0.77753042  0.55544052  0.22653065
   0.00068018  0.66722655  0.45157462
   0.22282484  0.77819076  0.33916877
   0.11165052  0.88956583  0.22655910
   0.33363614  0.66984304  0.45219547
   0.55586394  0.77784246  0.33942200
   0.44465095  0.88901717  0.22665391
   0.67042657  0.66997827  0.45209101
   0.88930822  0.77813344  0.33907798
   0.77805555  0.88898302  0.22663478
   0.33432948  0.33415405  0.45441871
Direct configuration=     2
   0.22222222  0.11111111  0.00000000
   0.22222222  0.44444444  0.00000000
   0.22222222  0.77777778  0.00000000
   0.55555556  0.11111111  0.00000000
   0.55555556  0.44444444  0.00000000
   0.55555556  0.77777778  0.00000000
   0.88888889  0.11111111  0.00000000
   0.88888889  0.44444444  0.00000000
   0.88888889  0.77777778  0.00000000
   0.00000000  0.00000000  0.11363913
   0.00000000  0.33333333  0.11363913
   0.00000000  0.66666667  0.11363913
   0.33333333  0.00000000  0.11363913
   0.33333333  0.33333333  0.11363913
   0.33333333  0.66666667  0.11363913
   0.66666667  0.00000000  0.11363913
   0.66666667  0.33333333  0.11363913
   0.66666667  0.66666667  0.11363913
   0.99819825  0.99773521  0.45203894
   0.22295355  0.11184627  0.33886479
   0.11088626  0.22209895  0.22590106
   0.33368173  0.99771028  0.45226083
   0.55588047  0.11155194  0.33945265
   0.44497721  0.22210242  0.22589798
   0.66737384  0.00051051  0.45157398
   0.88959410  0.11158940  0.33940203
   0.77808209  0.22243712  0.22664958
   0.99817888  0.33417970  0.45217417
   0.22284234  0.44459794  0.33887512
   0.11161470  0.55545062  0.22656696
   0.55566297  0.44457584  0.33880969
   0.44493065  0.55619615  0.22589696
   0.67025715  0.33408861  0.45218997
   0.88925516  0.44465924  0.33914837
   0.77754135  0.55544688  0.22652759
   0.00067567  0.66722305  0.45157253
   0.22282532  0.77819258  0.33917127
   0.11164529  0.88955518  0.22655467
   0.33363331  0.66977736  0.45220740
   0.55587512  0.77786223  0.33942104
   0.44465530  0.88901853  0.22664818
   0.67036227  0.66990403  0.45210491
   0.88930912  0.77813824  0.33908106
   0.77805119  0.88898810  0.22662914
   0.33430537  0.33413043  0.45426739
Direct configuration=     3
   0.22222222  0.11111111  0.00000000
   0.22222222  0.44444444  0.00000000
   0.22222222  0.77777778  0.00000000
   0.55555556  0.11111111  0.00000000
   0.55555556  0.44444444  0.00000000
   0.55555556  0.77777778  0.00000000
   0.88888889  0.11111111  0.00000000
   0.88888889  0.44444444  0.00000000
   0.88888889  0.77777778  0.00000000
   0.00000000  0.00000000  0.11363913
   0.00000000  0.33333333  0.11363913
   0.00000000  0.66666667  0.11363913
   0.33333333  0.00000000  0.11363913
   0.33333333  0.33333333  0.11363913
   0.33333333  0.66666667  0.11363913
   0.66666667  0.00000000  0.11363913
   0.66666667  0.33333333  0.11363913
   0.66666667  0.66666667  0.11363913
   0.99842782  0.99794575  0.45209189
   0.22290790  0.11177461  0.33890322
   0.11088043  0.22209788  0.22592646
   0.33366785  0.99789711  0.45228962
   0.55591080  0.11152289  0.33945022
   0.44497248  0.22210471  0.22592506
   0.66736179  0.00050302  0.45154691
   0.88953465  0.11155687  0.33939833
   0.77807035  0.22241342  0.22663323
   0.99838913  0.33420091  0.45221183
   0.22280575  0.44463344  0.33891040
   0.11160444  0.55547118  0.22655502
   0.55575011  0.44461910  0.33885433
   0.44492697  0.55619414  0.22592221
   0.67007464  0.33412908  0.45222582
   0.88925812  0.44465144  0.33915545
   0.77757414  0.55546595  0.22651839
   0.00066212  0.66721258  0.45156625
   0.22282675  0.77819805  0.33917878
   0.11162963  0.88952322  0.22654138
   0.33362483  0.66958032  0.45224320
   0.55590867  0.77792156  0.33941817
   0.44466837  0.88902263  0.22663096
   0.67016937  0.66968130  0.45214658
   0.88931182  0.77815266  0.33909027
   0.77803811  0.88900335  0.22661221
   0.33423304  0.33405956  0.45381345
Direct configuration=     4
   0.22222222  0.11111111  0.00000000
   0.22222222  0.44444444  0.00000000
   0.22222222  0.77777778  0.00000000
   0.55555556  0.11111111  0.00000000
   0.55555556  0.44444444  0.00000000
   0.55555556  0.77777778  0.00000000
   0.88888889  0.11111111  0.00000000
   0.88888889  0.44444444  0.00000000
   0.88888889  0.77777778  0.00000000
   0.00000000  0.00000000  0.11363913
   0.00000000  0.33333333  0.11363913
   0.00000000  0.66666667  0.11363913
   0.33333333  0.00000000  0.11363913
   0.33333333  0.33333333  0.11363913
   0.33333333  0.66666667  0.11363913
   0.66666667  0.00000000  0.11363913
   0.66666667  0.33333333  0.11363913
   0.66666667  0.66666667  0.11363913
   0.99888695  0.99836682  0.45219777
   0.22281661  0.11163128  0.33898010
   0.11086878  0.22209574  0.22597725
   0.33364009  0.99827077  0.45234719
   0.55597148  0.11146480  0.33944536
   0.44496302  0.22210929  0.22597922
   0.66733769  0.00048804  0.45149276
   0.88941577  0.11149181  0.33939093
   0.77804686  0.22236603  0.22660054
   0.99880962  0.33424332  0.45228715
   0.22273258  0.44470445  0.33898096
   0.11158393  0.55551229  0.22653112
   0.55592437  0.44470563  0.33894362
   0.44491960  0.55619014  0.22597270
   0.66970963  0.33421003  0.45229753
   0.88926404  0.44463586  0.33916959
   0.77763972  0.55550408  0.22649999
   0.00063501  0.66719162  0.45155370
   0.22282963  0.77820899  0.33919379
   0.11159830  0.88945932  0.22651480
   0.33360788  0.66918624  0.45231479
   0.55597577  0.77804021  0.33941241
   0.44469451  0.88903083  0.22659654
   0.66978357  0.66923583  0.45222993
   0.88931722  0.77818149  0.33910871
   0.77801194  0.88903383  0.22657837
   0.33408838  0.33391783  0.45290558
Direct configuration=     5
   0.22222222  0.11111111  0.00000000
   0.22222222  0.44444444  0.00000000
   0.22222222  0.77777778  0.00000000
   0.55555556  0.11111111  0.00000000
   0.55555556  0.44444444  0.00000000
   0.55555556  0.77777778  0.00000000
   0.88888889  0.11111111  0.00000000
   0.88888889  0.44444444  0.00000000
   0.88888889  0.77777778  0.00000000
   0.00000000  0.00000000  0.11363913
   0.00000000  0.33333333  0.11363913
   0.00000000  0.66666667  0.11363913
   0.33333333  0.00000000  0.11363913
   0.33333333  0.33333333  0.11363913
   0.33333333  0.66666667  0.11363913
   0.66666667  0.00000000  0.11363913
   0.66666667  0.33333333  0.11363913
   0.66666667  0.66666667  0.11363913
   0.99886290  0.99833753  0.45224894
   0.22267254  0.11135556  0.33886822
   0.11087452  0.22210042  0.22600054
   0.33363656  0.99825218  0.45237557
   0.55598335  0.11145770  0.33944946
   0.44495446  0.22211620  0.22600532
   0.66733610  0.00048698  0.45147546
   0.88939555  0.11147848  0.33939898
   0.77804205  0.22236273  0.22659024
   0.99879217  0.33424845  0.45232344
   0.22260072  0.44484369  0.33887043
   0.11157851  0.55552047  0.22652946
   0.55620062  0.44484590  0.33883946
   0.44491615  0.55618023  0.22599724
   0.66971350  0.33422823  0.45233364
   0.88925601  0.44460741  0.33919070
   0.77765116  0.55551173  0.22650198
   0.00062916  0.66718846  0.45155371
   0.22285333  0.77822256  0.33921392
   0.11159008  0.88944918  0.22651246
   0.33360788  0.66918328  0.45234885
   0.55598959  0.77806016  0.33941766
   0.44469416  0.88903072  0.22658625
   0.66976706  0.66921141  0.45227209
   0.88930859  0.77820761  0.33913458
   0.77800939  0.88903842  0.22656667
   0.33407923  0.33391176  0.45272770
Direct configuration=     6
   0.22222222  0.11111111  0.00000000
   0.22222222  0.44444444  0.00000000
   0.22222222  0.77777778  0.00000000
   0.55555556  0.11111111  0.00000000
   0.55555556  0.44444444  0.00000000
   0.55555556  0.77777778  0.00000000
   0.88888889  0.11111111  0.00000000
   0.88888889  0.44444444  0.00000000
   0.88888889  0.77777778  0.00000000
   0.00000000  0.00000000  0.11363913
   0.00000000  0.33333333  0.11363913
   0.00000000  0.66666667  0.11363913
   0.33333333  0.00000000  0.11363913
   0.33333333  0.33333333  0.11363913
   0.33333333  0.66666667  0.11363913
   0.66666667  0.00000000  0.11363913
   0.66666667  0.33333333  0.11363913
   0.66666667  0.66666667  0.11363913
   0.99882470  0.99829100  0.45233025
   0.22244359  0.11091742  0.33869043
   0.11088364  0.22210785  0.22603754
   0.33363094  0.99822264  0.45242066
   0.55600220  0.11144642  0.33945598
   0.44494084  0.22212719  0.22604680
   0.66733357  0.00048530  0.45144797
   0.88936342  0.11145731  0.33941176
   0.77803440  0.22235748  0.22657388
   0.99876445  0.33425660  0.45238111
   0.22239118  0.44506496  0.33869478
   0.11156991  0.55553347  0.22652682
   0.55663959  0.44506880  0.33867395
   0.44491067  0.55616450  0.22603625
   0.66971965  0.33425715  0.45239100
   0.88924325  0.44456221  0.33922425
   0.77766934  0.55552389  0.22650514
   0.00061986  0.66718343  0.45155374
   0.22289098  0.77824411  0.33924592
   0.11157703  0.88943308  0.22650874
   0.33360788  0.66917857  0.45240298
   0.55601156  0.77809187  0.33942599
   0.44469362  0.88903055  0.22656990
   0.66974081  0.66917259  0.45233910
   0.88929487  0.77824912  0.33917570
   0.77800535  0.88904571  0.22654807
   0.33406469  0.33390212  0.45244504
Direct configuration=     7
   0.22222222  0.11111111  0.00000000
   0.22222222  0.44444444  0.00000000
   0.22222222  0.77777778  0.00000000
   0.55555556  0.11111111  0.00000000
   0.55555556  0.44444444  0.00000000
   0.55555556  0.77777778  0.00000000
   0.88888889  0.11111111  0.00000000
   0.88888889  0.44444444  0.00000000
   0.88888889  0.77777778  0.00000000
   0.00000000  0.00000000  0.11363913
   0.00000000  0.33333333  0.11363913
   0.00000000  0.66666667  0.11363913
   0.33333333  0.00000000  0.11363913
   0.33333333  0.33333333  0.11363913
   0.33333333  0.66666667  0.11363913
   0.66666667  0.00000000  0.11363913
   0.66666667  0.33333333  0.11363913
   0.66666667  0.66666667  0.11363913
   0.99874829  0.99819792  0.45249287
   0.22198570  0.11004113  0.33833486
   0.11090189  0.22212272  0.22611156
   0.33361972  0.99816356  0.45251085
   0.55603992  0.11142387  0.33946901
   0.44491361  0.22214918  0.22612975
   0.66732851  0.00048193  0.45139298
   0.88929916  0.11141495  0.33943734
   0.77801910  0.22234700  0.22654117
   0.99870902  0.33427289  0.45249646
   0.22197210  0.44550750  0.33834348
   0.11155269  0.55555947  0.22652153
   0.55751752  0.44551458  0.33834292
   0.44489972  0.55613303  0.22611426
   0.66973196  0.33431500  0.45250574
   0.88921774  0.44447180  0.33929134
   0.77770570  0.55554820  0.22651147
   0.00060126  0.66717339  0.45155380
   0.22296628  0.77828721  0.33930990
   0.11155092  0.88940087  0.22650129
   0.33360787  0.66916916  0.45251122
   0.55605549  0.77815528  0.33944266
   0.44469254  0.88903020  0.22653720
   0.66968833  0.66909496  0.45247311
   0.88926744  0.77833215  0.33925794
   0.77799725  0.88906028  0.22651088
   0.33403560  0.33388283  0.45187973
Direct configuration=     8
   0.22222222  0.11111111  0.00000000
   0.22222222  0.44444444  0.00000000
   0.22222222  0.77777778  0.00000000
   0.55555556  0.11111111  0.00000000
   0.55555556  0.44444444  0.00000000
   0.55555556  0.77777778  0.00000000
   0.88888889  0.11111111  0.00000000
   0.88888889  0.44444444  0.00000000
   0.88888889  0.77777778  0.00000000
   0.00000000  0.00000000  0.11363913
   0.00000000  0.33333333  0.11363913
   0.00000000  0.66666667  0.11363913
   0.33333333  0.00000000  0.11363913
   0.33333333  0.33333333  0.11363913
   0.33333333  0.66666667  0.11363913
   0.66666667  0.00000000  0.11363913
   0.66666667  0.33333333  0.11363913
   0.66666667  0.66666667  0.11363913
   0.99878270  0.99823984  0.45241964
   0.22219191  0.11043576  0.33849499
   0.11089367  0.22211603  0.22607823
   0.33362477  0.99819017  0.45247023
   0.55602294  0.11143403  0.33946314
   0.44492587  0.22213928  0.22609239
   0.66733079  0.00048344  0.45141775
   0.88932810  0.11143403  0.33942582
   0.77802599  0.22235172  0.22655590
   0.99873398  0.33426555  0.45244451
   0.22216082  0.44530821  0.33850168
   0.11156044  0.55554776  0.22652391
   0.55712215  0.44531383  0.33849200
   0.44490465  0.55614720  0.22607913
   0.66972642  0.33428895  0.45245407
   0.88922923  0.44451252  0.33926112
   0.77768932  0.55553725  0.22650862
   0.00060964  0.66717791  0.45155377
   0.22293237  0.77826780  0.33928109
   0.11156268  0.88941538  0.22650464
   0.33360787  0.66917340  0.45246248
   0.55603570  0.77812673  0.33943515
   0.44469303  0.88903036  0.22655193
   0.66971196  0.66912992  0.45241276
   0.88927979  0.77829476  0.33922091
   0.77800090  0.88905372  0.22652763
   0.33404870  0.33389152  0.45213431
Direct configuration=     9
   0.22222222  0.11111111  0.00000000
   0.22222222  0.44444444  0.00000000
   0.22222222  0.77777778  0.00000000
   0.55555556  0.11111111  0.00000000
   0.55555556  0.44444444  0.00000000
   0.55555556  0.77777778  0.00000000
   0.88888889  0.11111111  0.00000000
   0.88888889  0.44444444  0.00000000
   0.88888889  0.77777778  0.00000000
   0.00000000  0.00000000  0.11363913
   0.00000000  0.33333333  0.11363913
   0.00000000  0.66666667  0.11363913
   0.33333333  0.00000000  0.11363913
   0.33333333  0.33333333  0.11363913
   0.33333333  0.66666667  0.11363913
   0.66666667  0.00000000  0.11363913
   0.66666667  0.33333333  0.11363913
   0.66666667  0.66666667  0.11363913
   0.99869556  0.99814793  0.45242473
   0.22219264  0.11045538  0.33843702
   0.11083402  0.22209127  0.22602282
   0.33360987  0.99811581  0.45246335
   0.55598731  0.11147838  0.33948892
   0.44495512  0.22211336  0.22603866
   0.66733435  0.00048500  0.45143571
   0.88941490  0.11147626  0.33945797
   0.77802813  0.22236931  0.22656906
   0.99866046  0.33426457  0.45244089
   0.22218329  0.44529165  0.33844340
   0.11150003  0.55560121  0.22648211
   0.55709625  0.44530555  0.33842944
   0.44493466  0.55620433  0.22602637
   0.66978037  0.33427676  0.45245168
   0.88921967  0.44449374  0.33928316
   0.77779962  0.55559552  0.22647045
   0.00061434  0.66718154  0.45158163
   0.22295488  0.77827434  0.33929922
   0.11150043  0.88930435  0.22646457
   0.33358739  0.66922182  0.45245759
   0.55599701  0.77804784  0.33946251
   0.44467824  0.88902640  0.22656548
   0.66976686  0.66919322  0.45241638
   0.88926270  0.77830680  0.33925147
   0.77800970  0.88904417  0.22654148
   0.33403735  0.33388555  0.45208849
Direct configuration=    10
   0.22222222  0.11111111  0.00000000
   0.22222222  0.44444444  0.00000000
   0.22222222  0.77777778  0.00000000
   0.55555556  0.11111111  0.00000000
   0.55555556  0.44444444  0.00000000
   0.55555556  0.77777778  0.00000000
   0.88888889  0.11111111  0.00000000
   0.88888889  0.44444444  0.00000000
   0.88888889  0.77777778  0.00000000
   0.00000000  0.00000000  0.11363913
   0.00000000  0.33333333  0.11363913
   0.00000000  0.66666667  0.11363913
   0.33333333  0.00000000  0.11363913
   0.33333333  0.33333333  0.11363913
   0.33333333  0.66666667  0.11363913
   0.66666667  0.00000000  0.11363913
   0.66666667  0.33333333  0.11363913
   0.66666667  0.66666667  0.11363913
   0.99853850  0.99798228  0.45243389
   0.22219396  0.11049076  0.33833255
   0.11072650  0.22204666  0.22592295
   0.33358300  0.99798179  0.45245094
   0.55592311  0.11155833  0.33953538
   0.44500784  0.22206665  0.22594181
   0.66734076  0.00048779  0.45146809
   0.88957135  0.11155239  0.33951590
   0.77803200  0.22240102  0.22659278
   0.99852795  0.33426278  0.45243434
   0.22222379  0.44526180  0.33833836
   0.11139115  0.55569756  0.22640675
   0.55704955  0.44529063  0.33831668
   0.44498875  0.55630728  0.22593128
   0.66987763  0.33425478  0.45244736
   0.88920245  0.44445989  0.33932289
   0.77799841  0.55570054  0.22640165
   0.00062281  0.66718807  0.45163184
   0.22299546  0.77828612  0.33933192
   0.11138823  0.88910424  0.22639235
   0.33355047  0.66930910  0.45244878
   0.55592726  0.77790565  0.33951182
   0.44465159  0.88901926  0.22658990
   0.66986580  0.66930730  0.45242292
   0.88923187  0.77832850  0.33930655
   0.77802555  0.88902694  0.22656645
   0.33401691  0.33387478  0.45200590
Direct configuration=    11
   0.22222222  0.11111111  0.00000000
   0.22222222  0.44444444  0.00000000
   0.22222222  0.77777778  0.00000000
   0.55555556  0.11111111  0.00000000
   0.55555556  0.44444444  0.00000000
   0.55555556  0.77777778  0.00000000
   0.88888889  0.11111111  0.00000000
   0.88888889  0.44444444  0.00000000
   0.88888889  0.77777778  0.00000000
   0.00000000  0.00000000  0.11363913
   0.00000000  0.33333333  0.11363913
   0.00000000  0.66666667  0.11363913
   0.33333333  0.00000000  0.11363913
   0.33333333  0.33333333  0.11363913
   0.33333333  0.66666667  0.11363913
   0.66666667  0.00000000  0.11363913
   0.66666667  0.33333333  0.11363913
   0.66666667  0.66666667  0.11363913
   0.99861142  0.99802904  0.45243004
   0.22220204  0.11052504  0.33828830
   0.11069210  0.22203087  0.22587744
   0.33354396  0.99802216  0.45243563
   0.55591223  0.11156621  0.33954236
   0.44501877  0.22205065  0.22589421
   0.66732528  0.00047870  0.45149428
   0.88958886  0.11156172  0.33952532
   0.77802365  0.22238114  0.22662989
   0.99859482  0.33428596  0.45242302
   0.22224091  0.44523726  0.33828881
   0.11138516  0.55569931  0.22640071
   0.55700137  0.44526657  0.33827156
   0.44500472  0.55634313  0.22588306
   0.66981435  0.33426989  0.45243488
   0.88923301  0.44452200  0.33931291
   0.77800749  0.55571111  0.22639756
   0.00061270  0.66717542  0.45167248
   0.22293829  0.77825360  0.33931639
   0.11137608  0.88909625  0.22638639
   0.33350562  0.66922723  0.45243570
   0.55591775  0.77789427  0.33952013
   0.44467161  0.88903069  0.22662509
   0.66980095  0.66922087  0.45241930
   0.88924954  0.77829260  0.33930292
   0.77801724  0.88904102  0.22660710
   0.33399910  0.33385242  0.45195572
