       N       E                     dE             d eps       ncg     rms          rms(c)
DAV:   1     0.504665618692E+04    0.50467E+04   -0.22535E+05  5568   0.159E+03
DAV:   2     0.329636080736E+03   -0.47170E+04   -0.44033E+04  5376   0.430E+02
DAV:   3    -0.303867749325E+03   -0.63350E+03   -0.60381E+03  6192   0.154E+02
DAV:   4    -0.334516035290E+03   -0.30648E+02   -0.30370E+02  6528   0.329E+01
DAV:   5    -0.335099689908E+03   -0.58365E+00   -0.58288E+00  6576   0.537E+00    0.887E+01
DAV:   6    -0.478219523341E+03   -0.14312E+03   -0.67635E+02  6096   0.106E+02    0.166E+02
DAV:   7    -0.299222318559E+03    0.17900E+03   -0.24543E+02  6192   0.661E+01    0.580E+01
DAV:   8    -0.292024455146E+03    0.71979E+01   -0.94938E+01  7152   0.362E+01    0.234E+01
DAV:   9    -0.297812051253E+03   -0.57876E+01   -0.18848E+01  6288   0.947E+00    0.139E+01
DAV:  10    -0.299908005931E+03   -0.20960E+01   -0.10629E+00  6912   0.257E+00    0.985E+00
DAV:  11    -0.300403879838E+03   -0.49587E+00   -0.40771E-01  6432   0.161E+00    0.502E+00
DAV:  12    -0.300647325556E+03   -0.24345E+00   -0.35120E-01  6624   0.130E+00    0.113E+00
DAV:  13    -0.300680243390E+03   -0.32918E-01   -0.80690E-02  6432   0.537E-01    0.105E+00
DAV:  14    -0.300679492468E+03    0.75092E-03   -0.45794E-03  6384   0.183E-01    0.557E-01
DAV:  15    -0.300680042301E+03   -0.54983E-03   -0.13542E-03  6768   0.105E-01    0.313E-01
DAV:  16    -0.300678038365E+03    0.20039E-02   -0.55610E-04  6720   0.559E-02    0.835E-02
DAV:  17    -0.300677864016E+03    0.17435E-03   -0.12628E-04  5856   0.225E-02    0.524E-02
DAV:  18    -0.300678054734E+03   -0.19072E-03   -0.18993E-05  5184   0.102E-02    0.227E-02
DAV:  19    -0.300678205739E+03   -0.15100E-03   -0.12302E-05  4608   0.780E-03    0.108E-02
DAV:  20    -0.300678097616E+03    0.10812E-03   -0.21710E-06  3744   0.397E-03    0.315E-03
DAV:  21    -0.300678080522E+03    0.17093E-04   -0.76644E-07  3792   0.179E-03    0.155E-03
DAV:  22    -0.300678091833E+03   -0.11311E-04   -0.14921E-07  3504   0.963E-04    0.811E-04
DAV:  23    -0.300678093282E+03   -0.14493E-05   -0.35343E-08  3552   0.399E-04
   1 F= -.30067809E+03 E0= -.30067809E+03  d E =-.300678E+03  mag=     7.9765
       N       E                     dE             d eps       ncg     rms          rms(c)
DAV:   1    -0.375394440350E+03   -0.74716E+02   -0.84116E+02  6192   0.852E+01    0.882E+01
DAV:   2    -0.549288182512E+03   -0.17389E+03   -0.12249E+03  5904   0.132E+02    0.141E+02
DAV:   3    -0.303508181958E+03    0.24578E+03   -0.45070E+02  6240   0.946E+01    0.225E+01
DAV:   4    -0.307361946905E+03   -0.38538E+01   -0.94293E+01  7200   0.219E+01    0.190E+01
DAV:   5    -0.305444701792E+03    0.19172E+01   -0.81411E+00  6432   0.867E+00    0.129E+01
DAV:   6    -0.305288124181E+03    0.15658E+00   -0.51691E-01  7056   0.149E+00    0.813E+00
DAV:   7    -0.305070026659E+03    0.21810E+00   -0.28046E-01  6096   0.145E+00    0.343E+00
DAV:   8    -0.305072531017E+03   -0.25044E-02   -0.70846E-02  6912   0.635E-01    0.246E+00
DAV:   9    -0.305068316491E+03    0.42145E-02   -0.64866E-03  6192   0.195E-01    0.197E+00
DAV:  10    -0.305062635832E+03    0.56807E-02   -0.20517E-02  7248   0.298E-01    0.771E-01
DAV:  11    -0.305063237972E+03   -0.60214E-03   -0.32575E-03  6384   0.112E-01    0.514E-01
DAV:  12    -0.305063574229E+03   -0.33626E-03   -0.26809E-04  6048   0.473E-02    0.341E-01
DAV:  13    -0.305064682394E+03   -0.11082E-02   -0.96198E-04  6528   0.112E-01    0.131E-01
DAV:  14    -0.305065674959E+03   -0.99257E-03   -0.82937E-04  7200   0.837E-02    0.179E-01
DAV:  15    -0.305066309403E+03   -0.63444E-03   -0.56802E-04  7104   0.829E-02    0.211E-01
DAV:  16    -0.305066572277E+03   -0.26287E-03   -0.62330E-04  7152   0.872E-02    0.148E-01
DAV:  17    -0.305066658607E+03   -0.86330E-04   -0.25389E-04  7152   0.419E-02    0.118E-01
DAV:  18    -0.305066699382E+03   -0.40774E-04   -0.40189E-05  5760   0.160E-02    0.753E-02
DAV:  19    -0.305066721558E+03   -0.22176E-04   -0.60001E-06  4080   0.942E-03    0.358E-02
DAV:  20    -0.305066730058E+03   -0.85004E-05   -0.57494E-06  3696   0.813E-03
   2 F= -.30506673E+03 E0= -.30506673E+03  d E =-.438864E+01  mag=     0.0080
       N       E                     dE             d eps       ncg     rms          rms(c)
DAV:   1    -0.305067931694E+03   -0.12101E-02   -0.31976E-02  6192   0.577E-01    0.522E-01
DAV:   2    -0.305077230268E+03   -0.92986E-02   -0.38646E-02  6480   0.925E-01    0.838E-01
DAV:   3    -0.305066027824E+03    0.11202E-01   -0.17584E-02  6096   0.676E-01    0.124E-01
DAV:   4    -0.305066175457E+03   -0.14763E-03   -0.12539E-03  6000   0.551E-02    0.681E-02
DAV:   5    -0.305066178269E+03   -0.28117E-05   -0.56801E-05  5952   0.317E-02
   3 F= -.30506618E+03 E0= -.30506618E+03  d E =-.438808E+01  mag=     0.0056
       N       E                     dE             d eps       ncg     rms          rms(c)
DAV:   1    -0.312036295509E+03   -0.69701E+01   -0.56605E+01  6240   0.273E+01    0.256E+01
DAV:   2    -0.331402385295E+03   -0.19366E+02   -0.11248E+02  6240   0.518E+01    0.426E+01
DAV:   3    -0.305303273154E+03    0.26099E+02   -0.47170E+01  6144   0.290E+01    0.493E+00
DAV:   4    -0.305453688658E+03   -0.15042E+00   -0.36158E+00  5664   0.283E+00    0.331E+00
DAV:   5    -0.305318441380E+03    0.13525E+00   -0.19720E-01  6624   0.154E+00    0.994E-01
DAV:   6    -0.305314134145E+03    0.43072E-02   -0.57498E-02  6048   0.400E-01    0.775E-01
DAV:   7    -0.305313659327E+03    0.47482E-03   -0.12743E-03  6864   0.874E-02    0.595E-01
DAV:   8    -0.305312435745E+03    0.12236E-02   -0.12174E-03  7104   0.121E-01    0.160E-01
DAV:   9    -0.305312551132E+03   -0.11539E-03   -0.43517E-04  6336   0.483E-02    0.846E-02
DAV:  10    -0.305312491651E+03    0.59481E-04   -0.37134E-05  5904   0.166E-02    0.442E-02
DAV:  11    -0.305312529619E+03   -0.37969E-04   -0.35631E-05  5760   0.101E-02    0.225E-02
DAV:  12    -0.305312531653E+03   -0.20340E-05   -0.41858E-06  3648   0.399E-03
   4 F= -.30531253E+03 E0= -.30531253E+03  d E =-.246353E+00  mag=     0.0064
       N       E                     dE             d eps       ncg     rms          rms(c)
DAV:   1    -0.305372386452E+03   -0.59857E-01   -0.55247E-01  6480   0.266E+00    0.249E+00
DAV:   2    -0.305571303937E+03   -0.19892E+00   -0.98141E-01  6000   0.458E+00    0.431E+00
DAV:   3    -0.305312816408E+03    0.25849E+00   -0.43483E-01  5952   0.341E+00    0.472E-01
DAV:   4    -0.305314110246E+03   -0.12938E-02   -0.34260E-02  5904   0.253E-01    0.300E-01
DAV:   5    -0.305313292170E+03    0.81808E-03   -0.13717E-03  6720   0.114E-01    0.130E-01
DAV:   6    -0.305313023854E+03    0.26832E-03   -0.63970E-04  6096   0.418E-02    0.446E-02
DAV:   7    -0.305313110110E+03   -0.86256E-04   -0.51388E-05  5568   0.189E-02    0.292E-02
DAV:   8    -0.305313117122E+03   -0.70120E-05   -0.53788E-06  3648   0.862E-03
   5 F= -.30531312E+03 E0= -.30531312E+03  d E =-.246939E+00  mag=     0.0071
       N       E                     dE             d eps       ncg     rms          rms(c)
DAV:   1    -0.305329945200E+03   -0.16835E-01   -0.19032E-01  6528   0.155E+00    0.146E+00
DAV:   2    -0.305402788396E+03   -0.72843E-01   -0.34409E-01  6000   0.271E+00    0.254E+00
DAV:   3    -0.305310680775E+03    0.92108E-01   -0.15200E-01  5952   0.199E+00    0.272E-01
DAV:   4    -0.305311343360E+03   -0.66258E-03   -0.11162E-02  5664   0.145E-01    0.173E-01
DAV:   5    -0.305311077969E+03    0.26539E-03   -0.36844E-04  6816   0.686E-02    0.816E-02
DAV:   6    -0.305310915110E+03    0.16286E-03   -0.30665E-04  6048   0.303E-02    0.280E-02
DAV:   7    -0.305311010150E+03   -0.95040E-04   -0.58263E-05  5760   0.126E-02    0.200E-02
DAV:   8    -0.305311009990E+03    0.16026E-06   -0.26717E-06  3456   0.397E-03
   6 F= -.30531101E+03 E0= -.30531101E+03  d E =-.244832E+00  mag=     0.0071
       N       E                     dE             d eps       ncg     rms          rms(c)
DAV:   1    -0.305313144919E+03   -0.21348E-02   -0.71453E-03  6576   0.302E-01    0.290E-01
DAV:   2    -0.305314182740E+03   -0.10378E-02   -0.16094E-02  5952   0.547E-01    0.524E-01
DAV:   3    -0.305311698383E+03    0.24844E-02   -0.59818E-03  6000   0.395E-01    0.516E-02
DAV:   4    -0.305311615273E+03    0.83110E-04   -0.47450E-04  5760   0.284E-02    0.408E-02
DAV:   5    -0.305311562509E+03    0.52764E-04   -0.33537E-05  5472   0.247E-02    0.120E-02
DAV:   6    -0.305311585700E+03   -0.23191E-04   -0.88596E-06  3456   0.537E-03    0.547E-03
DAV:   7    -0.305311572387E+03    0.13313E-04   -0.16160E-06  3264   0.394E-03    0.240E-03
DAV:   8    -0.305311574387E+03   -0.19995E-05   -0.29133E-07  3264   0.195E-03
   7 F= -.30531157E+03 E0= -.30531157E+03  d E =-.245396E+00  mag=     0.0071
       N       E                     dE             d eps       ncg     rms          rms(c)
DAV:   1    -0.305317735816E+03   -0.61634E-02   -0.32006E-02  6480   0.628E-01    0.598E-01
DAV:   2    -0.305325175575E+03   -0.74398E-02   -0.60351E-02  6000   0.112E+00    0.105E+00
DAV:   3    -0.305312798706E+03    0.12377E-01   -0.25106E-02  5904   0.803E-01    0.110E-01
DAV:   4    -0.305312560100E+03    0.23861E-03   -0.16718E-03  5856   0.573E-02    0.691E-02
DAV:   5    -0.305312513570E+03    0.46530E-04   -0.64833E-05  5952   0.301E-02    0.268E-02
DAV:   6    -0.305312521916E+03   -0.83465E-05   -0.19917E-05  4656   0.910E-03
   8 F= -.30531252E+03 E0= -.30531252E+03  d E =-.246344E+00  mag=     0.0090
       N       E                     dE             d eps       ncg     rms          rms(c)
DAV:   1    -0.305312184790E+03    0.32878E-03   -0.15046E-03  6672   0.130E-01    0.123E-01
DAV:   2    -0.305313410621E+03   -0.12258E-02   -0.30264E-03  6000   0.228E-01    0.228E-01
DAV:   3    -0.305312290515E+03    0.11201E-02   -0.12855E-03  6000   0.167E-01    0.255E-02
DAV:   4    -0.305312321966E+03   -0.31451E-04   -0.60501E-05  5424   0.118E-02    0.171E-02
DAV:   5    -0.305312329692E+03   -0.77253E-05   -0.20228E-06  3168   0.580E-03
   9 F= -.30531233E+03 E0= -.30531233E+03  d E =-.246151E+00  mag=     0.0149
       N       E                     dE             d eps       ncg     rms          rms(c)
DAV:   1    -0.305311990143E+03    0.33182E-03   -0.73439E-03  6480   0.309E-01    0.290E-01
DAV:   2    -0.305316275099E+03   -0.42850E-02   -0.14391E-02  6000   0.534E-01    0.510E-01
DAV:   3    -0.305311764177E+03    0.45109E-02   -0.64905E-03  5904   0.390E-01    0.579E-02
DAV:   4    -0.305311890076E+03   -0.12590E-03   -0.41536E-04  5808   0.295E-02    0.343E-02
DAV:   5    -0.305311883159E+03    0.69166E-05   -0.12239E-05  4224   0.136E-02
  10 F= -.30531188E+03 E0= -.30531188E+03  d E =-.245705E+00  mag=     0.0152
       N       E                     dE             d eps       ncg     rms          rms(c)
DAV:   1    -0.305311596470E+03    0.29361E-03   -0.49694E-04  6096   0.773E-02    0.749E-02
DAV:   2    -0.305312207289E+03   -0.61082E-03   -0.80116E-04  6000   0.132E-01    0.121E-01
DAV:   3    -0.305311711274E+03    0.49601E-03   -0.36087E-04  5904   0.972E-02    0.172E-02
DAV:   4    -0.305311760187E+03   -0.48913E-04   -0.33899E-05  5184   0.831E-03    0.101E-02
DAV:   5    -0.305311756072E+03    0.41150E-05   -0.11694E-06  2880   0.374E-03
  11 F= -.30531176E+03 E0= -.30531176E+03  d E =-.245578E+00  mag=     0.0152
       N       E                     dE             d eps       ncg     rms          rms(c)
DAV:   1    -0.305324016573E+03   -0.12256E-01   -0.20333E-01  6240   0.139E+00    0.124E+00
DAV:   2    -0.305372064829E+03   -0.48048E-01   -0.23107E-01  6528   0.219E+00    0.204E+00
DAV:   3    -0.305311320380E+03    0.60744E-01   -0.10330E-01  5856   0.163E+00    0.308E-01
DAV:   4    -0.305311564739E+03   -0.24436E-03   -0.75841E-03  5472   0.136E-01    0.169E-01
DAV:   5    -0.305311504349E+03    0.60390E-04   -0.32735E-04  6720   0.747E-02    0.568E-02
DAV:   6    -0.305311482885E+03    0.21464E-04   -0.85756E-05  5760   0.197E-02    0.262E-02
DAV:   7    -0.305311536555E+03   -0.53670E-04   -0.75518E-06  3744   0.122E-02    0.124E-02
DAV:   8    -0.305311553130E+03   -0.16575E-04   -0.31273E-06  3216   0.393E-03    0.636E-03
DAV:   9    -0.305311548020E+03    0.51108E-05   -0.74657E-07  2976   0.287E-03
  12 F= -.30531155E+03 E0= -.30531155E+03  d E =0.208053E-03  mag=     0.0143
