 vasp.5.4.4.2.16052018-CX13-ORIG (build Jul 06 2020 08:41:35) complex           
  
 executed on   Pi1911m201i197avx2 date 2023.12.15  01:28:11
 running on   48 total cores
 distrk:  each k-point on   48 cores,    1 groups
 distr:  one band on NCORES_PER_BAND=   1 cores,   48 groups


--------------------------------------------------------------------------------------------------------


 INCAR:
 POTCAR:    PAW_PBE Al 04Jan2001                  
 POTCAR:    PAW_PBE Co_pv 23Apr2009               
 POTCAR:    PAW_PBE S 06Sep2000                   

 ----------------------------------------------------------------------------- 
|                                                                             |
|           W    W    AA    RRRRR   N    N  II  N    N   GGGG   !!!           |
|           W    W   A  A   R    R  NN   N  II  NN   N  G    G  !!!           |
|           W    W  A    A  R    R  N N  N  II  N N  N  G       !!!           |
|           W WW W  AAAAAA  RRRRR   N  N N  II  N  N N  G  GGG   !            |
|           WW  WW  A    A  R   R   N   NN  II  N   NN  G    G                |
|           W    W  A    A  R    R  N    N  II  N    N   GGGG   !!!           |
|                                                                             |
|      For optimal performance we recommend to set                            |
|        NCORE= 4 - approx SQRT( number of cores)                             |
|      NCORE specifies how many cores store one orbital (NPAR=cpu/NCORE).     |
|      This setting can  greatly improve the performance of VASP for DFT.     |
|      The default,   NCORE=1            might be grossly inefficient         |
|      on modern multi-core architectures or massively parallel machines.     |
|      Do your own testing !!!!                                               |
|      Unfortunately you need to use the default for GW and RPA calculations. |
|      (for HF NCORE is supported but not extensively tested yet)             |
|                                                                             |
 ----------------------------------------------------------------------------- 

 POTCAR:    PAW_PBE Al 04Jan2001                  
   VRHFIN =Al: s2p1                                                             
   LEXCH  = PE                                                                  
   EATOM  =    53.5387 eV,    3.9350 Ry                                         
                                                                                
   TITEL  = PAW_PBE Al 04Jan2001                                                
   LULTRA =        F    use ultrasoft PP ?                                      
   IUNSCR =        1    unscreen: 0-lin 1-nonlin 2-no                           
   RPACOR =    1.500    partial core radius                                     
   POMASS =   26.981; ZVAL   =    3.000    mass and valenz                      
   RCORE  =    1.900    outmost cutoff radius                                   
   RWIGS  =    2.650; RWIGS  =    1.402    wigner-seitz radius (au A)           
   ENMAX  =  240.300; ENMIN  =  180.225 eV                                      
   ICORE  =        2    local potential                                         
   LCOR   =        T    correct aug charges                                     
   LPAW   =        T    paw PP                                                  
   EAUG   =  291.052                                                            
   DEXC   =    0.000                                                            
   RMAX   =    1.939    core radius for proj-oper                               
   RAUG   =    1.300    factor for augmentation sphere                          
   RDEP   =    1.966    radius for radial grids                                 
   RDEPT  =    1.856    core radius for aug-charge                              
                                                                                
   Atomic configuration                                                         
    6 entries                                                                   
     n  l   j            E        occ.                                          
     1  0  0.50     -1511.1048   2.0000                                         
     2  0  0.50      -108.1629   2.0000                                         
     2  1  1.50       -69.6402   6.0000                                         
     3  0  0.50        -7.7528   2.0000                                         
     3  1  1.50        -2.7121   1.0000                                         
     3  2  2.50        -2.7212   0.0000                                         
   Description                                                                  
     l       E           TYP  RCUT    TYP  RCUT                                 
     0     -7.7528455     23  1.900                                             
     0     -3.3096929     23  1.900                                             
     1     -2.7120682     23  1.900                                             
     1     13.6058260     23  1.900                                             
     2     -2.7211652      7  1.900                                             
  local pseudopotential read in
  partial core-charges read in
  partial kinetic energy density read in
  atomic valenz-charges read in
  non local Contribution for L=           0  read in
    real space projection operators read in
  non local Contribution for L=           0  read in
    real space projection operators read in
  non local Contribution for L=           1  read in
    real space projection operators read in
  non local Contribution for L=           1  read in
    real space projection operators read in
    PAW grid and wavefunctions read in
 
   number of l-projection  operators is LMAX  =           4
   number of lm-projection operators is LMMAX =           8
 
 POTCAR:    PAW_PBE Co_pv 23Apr2009               
   VRHFIN =Co: 3pd7s1                                                           
   LEXCH  = PE                                                                  
   EATOM  =  2948.1334 eV,  216.6817 Ry                                         
                                                                                
   TITEL  = PAW_PBE Co_pv 23Apr2009                                             
   LULTRA =        F    use ultrasoft PP ?                                      
   IUNSCR =        1    unscreen: 0-lin 1-nonlin 2-no                           
   RPACOR =    2.000    partial core radius                                     
   POMASS =   58.933; ZVAL   =   15.000    mass and valenz                      
   RCORE  =    2.300    outmost cutoff radius                                   
   RWIGS  =    2.460; RWIGS  =    1.302    wigner-seitz radius (au A)           
   ENMAX  =  271.042; ENMIN  =  203.281 eV                                      
   ICORE  =        3    local potential                                         
   LCOR   =        T    correct aug charges                                     
   LPAW   =        T    paw PP                                                  
   EAUG   =  543.066                                                            
   DEXC   =    0.000                                                            
   RMAX   =    2.360    core radius for proj-oper                               
   RAUG   =    1.300    factor for augmentation sphere                          
   RDEP   =    2.393    radius for radial grids                                 
   RDEPT  =    1.841    core radius for aug-charge                              
                                                                                
   Atomic configuration                                                         
    8 entries                                                                   
     n  l   j            E        occ.                                          
     1  0  0.50     -7587.6674   2.0000                                         
     2  0  0.50      -893.6084   2.0000                                         
     2  1  1.50      -764.5805   6.0000                                         
     3  0  0.50       -97.5973   2.0000                                         
     3  1  1.50       -60.9648   6.0000                                         
     3  2  2.50        -4.2382   8.0000                                         
     4  0  0.50        -4.3746   1.0000                                         
     4  3  2.50        -1.3606   0.0000                                         
   Description                                                                  
     l       E           TYP  RCUT    TYP  RCUT                                 
     1    -60.9647990     23  2.000                                             
     1     -5.4423304     23  2.000                                             
     2     -4.2382362     23  2.300                                             
     2     -5.5988188     23  2.300                                             
     0     -4.3745797     23  2.300                                             
     0      5.7660125     23  2.300                                             
     3     -1.3605826     23  2.300                                             
  local pseudopotential read in
  partial core-charges read in
  partial kinetic energy density read in
  atomic valenz-charges read in
  non local Contribution for L=           1  read in
    real space projection operators read in
  non local Contribution for L=           1  read in
    real space projection operators read in
  non local Contribution for L=           2  read in
    real space projection operators read in
  non local Contribution for L=           2  read in
    real space projection operators read in
  non local Contribution for L=           0  read in
    real space projection operators read in
  non local Contribution for L=           0  read in
    real space projection operators read in
    PAW grid and wavefunctions read in
 
   number of l-projection  operators is LMAX  =           6
   number of lm-projection operators is LMMAX =          18
 
 POTCAR:    PAW_PBE S 06Sep2000                   
   VRHFIN =S : s2p4                                                             
   LEXCH  = PE                                                                  
   EATOM  =   276.8230 eV,   20.3459 Ry                                         
                                                                                
   TITEL  = PAW_PBE S 06Sep2000                                                 
   LULTRA =        F    use ultrasoft PP ?                                      
   IUNSCR =        1    unscreen: 0-lin 1-nonlin 2-no                           
   RPACOR =    1.500    partial core radius                                     
   POMASS =   32.066; ZVAL   =    6.000    mass and valenz                      
   RCORE  =    1.900    outmost cutoff radius                                   
   RWIGS  =    2.200; RWIGS  =    1.164    wigner-seitz radius (au A)           
   ENMAX  =  258.689; ENMIN  =  194.016 eV                                      
   ICORE  =        2    local potential                                         
   LCOR   =        T    correct aug charges                                     
   LPAW   =        T    paw PP                                                  
   EAUG   =  335.092                                                            
   DEXC   =    0.000                                                            
   RMAX   =    1.942    core radius for proj-oper                               
   RAUG   =    1.300    factor for augmentation sphere                          
   RDEP   =    1.954    radius for radial grids                                 
   RDEPT  =    1.744    core radius for aug-charge                              
                                                                                
   Atomic configuration                                                         
    6 entries                                                                   
     n  l   j            E        occ.                                          
     1  0  0.50     -2405.8406   2.0000                                         
     2  0  0.50      -211.7007   2.0000                                         
     2  1  1.50      -156.4958   6.0000                                         
     3  0  0.50       -17.2562   2.0000                                         
     3  1  0.50        -7.0085   4.0000                                         
     3  2  1.50        -6.8029   0.0000                                         
   Description                                                                  
     l       E           TYP  RCUT    TYP  RCUT                                 
     0    -17.2561641     23  1.900                                             
     0    -15.8743224     23  1.900                                             
     1     -7.0085400     23  1.900                                             
     1     -2.7779785     23  1.900                                             
     2     -6.8029130     23  1.900                                             
  local pseudopotential read in
  partial core-charges read in
  partial kinetic energy density read in
  atomic valenz-charges read in
  non local Contribution for L=           0  read in
    real space projection operators read in
  non local Contribution for L=           0  read in
    real space projection operators read in
  non local Contribution for L=           1  read in
    real space projection operators read in
  non local Contribution for L=           1  read in
    real space projection operators read in
    PAW grid and wavefunctions read in
 
   number of l-projection  operators is LMAX  =           4
   number of lm-projection operators is LMMAX =           8
 
 Optimization of the real space projectors (new method)

 maximal supplied QI-value         = 19.84
 optimisation between [QCUT,QGAM] = [ 11.51, 23.22] = [ 37.09,150.92] Ry 
 Optimized for a Real-space Cutoff    1.18 Angstroem

   l    n(q)    QCUT    max X(q) W(low)/X(q) W(high)/X(q)  e(spline) 
   0      8    11.508   176.870    0.11E-03    0.16E-03    0.40E-07
   0      8    11.508   105.762    0.11E-03    0.16E-03    0.39E-07
   1      8    11.508    55.370    0.23E-03    0.10E-03    0.75E-07
   1      8    11.508    20.208    0.21E-03    0.91E-04    0.68E-07
 Optimization of the real space projectors (new method)

 maximal supplied QI-value         = 16.25
 optimisation between [QCUT,QGAM] = [ 11.54, 23.24] = [ 37.28,151.24] Ry 
 Optimized for a Real-space Cutoff    1.32 Angstroem

   l    n(q)    QCUT    max X(q) W(low)/X(q) W(high)/X(q)  e(spline) 
   1      9    11.539     4.946    0.12E-03    0.47E-03    0.20E-06
   1      9    11.539     5.991    0.19E-03    0.70E-03    0.29E-06
   2      8    11.539    46.947    0.22E-03    0.40E-03    0.23E-06
   2      8    11.539    42.928    0.24E-03    0.42E-03    0.23E-06
   0      9    11.539    68.324    0.11E-03    0.13E-03    0.74E-07
   0      9    11.539    36.926    0.10E-03    0.12E-03    0.70E-07
 Optimization of the real space projectors (new method)

 maximal supplied QI-value         = 19.84
 optimisation between [QCUT,QGAM] = [ 11.51, 23.22] = [ 37.09,150.92] Ry 
 Optimized for a Real-space Cutoff    1.21 Angstroem

   l    n(q)    QCUT    max X(q) W(low)/X(q) W(high)/X(q)  e(spline) 
   0      8    11.508   187.594    0.96E-04    0.18E-03    0.54E-07
   0      8    11.508   164.243    0.96E-04    0.18E-03    0.54E-07
   1      8    11.508    67.533    0.18E-03    0.65E-04    0.94E-07
   1      8    11.508    50.729    0.18E-03    0.63E-04    0.92E-07
  PAW_PBE Al 04Jan2001                  :
 energy of atom  1       EATOM=  -53.5387
 kinetic energy error for atom=    0.0002 (will be added to EATOM!!)
  PAW_PBE Co_pv 23Apr2009               :
 energy of atom  2       EATOM=-2948.1334
 kinetic energy error for atom=    0.0056 (will be added to EATOM!!)
  PAW_PBE S 06Sep2000                   :
 energy of atom  3       EATOM= -276.8230
 kinetic energy error for atom=    0.0016 (will be added to EATOM!!)
 
 
 POSCAR: AlCo2S4                                 
  positions in direct lattice
  No initial velocities read in
 exchange correlation table for  LEXCH =        8
   RHO(1)=    0.500       N(1)  =     2000
   RHO(2)=  100.500       N(2)  =     4000
 


--------------------------------------------------------------------------------------------------------


 ion  position               nearest neighbor table
   1  0.000  0.000  0.000-  28 2.24  40 2.24  46 2.24  54 2.24
   2  0.250  0.750  0.750-  33 2.24  35 2.24  37 2.24  39 2.24
   3  0.500  0.000  0.500-  26 2.24  34 2.24  42 2.24  55 2.24
   4  0.000  0.500  0.500-  32 2.24  38 2.24  44 2.24  53 2.24
   5  0.500  0.500  0.000-  30 2.24  36 2.24  48 2.24  56 2.24
   6  0.750  0.250  0.750-  41 2.24  43 2.24  45 2.24  47 2.24
   7  0.750  0.750  0.250-  49 2.24  50 2.24  51 2.24  52 2.24
   8  0.250  0.250  0.250-  25 2.24  27 2.24  29 2.24  31 2.24
   9  0.125  0.125  0.625-  25 2.38  35 2.38  42 2.38  44 2.38  45 2.38  46 2.38
  10  0.875  0.875  0.625-  26 2.38  28 2.38  32 2.38  35 2.38  45 2.38  52 2.38
  11  0.375  0.125  0.875-  27 2.38  37 2.38  41 2.38  42 2.38  46 2.38  48 2.38
  12  0.625  0.875  0.875-  26 2.38  28 2.38  30 2.38  37 2.38  41 2.38  51 2.38
  13  0.125  0.375  0.875-  29 2.38  33 2.38  43 2.38  44 2.38  46 2.38  48 2.38
  14  0.875  0.625  0.875-  28 2.38  30 2.38  32 2.38  33 2.38  43 2.38  50 2.38
  15  0.375  0.375  0.625-  31 2.38  39 2.38  42 2.38  44 2.38  47 2.38  48 2.38
  16  0.625  0.625  0.625-  26 2.38  30 2.38  32 2.38  39 2.38  47 2.38  49 2.38
  17  0.375  0.875  0.125-  27 2.38  34 2.38  36 2.38  37 2.38  40 2.38  51 2.38
  18  0.375  0.625  0.375-  31 2.38  34 2.38  36 2.38  38 2.38  39 2.38  49 2.38
  19  0.125  0.625  0.125-  29 2.38  33 2.38  36 2.38  38 2.38  40 2.38  50 2.38
  20  0.125  0.875  0.375-  25 2.38  34 2.38  35 2.38  38 2.38  40 2.38  52 2.38
  21  0.875  0.375  0.125-  29 2.38  43 2.38  50 2.38  53 2.38  54 2.38  56 2.38
  22  0.875  0.125  0.375-  25 2.38  45 2.38  52 2.38  53 2.38  54 2.38  55 2.38
  23  0.625  0.125  0.125-  27 2.38  41 2.38  51 2.38  54 2.38  55 2.38  56 2.38
  24  0.625  0.375  0.375-  31 2.38  47 2.38  49 2.38  53 2.38  55 2.38  56 2.38
  25  0.118  0.118  0.382-   8 2.24   9 2.38  20 2.38  22 2.38
  26  0.632  0.868  0.632-   3 2.24  10 2.38  12 2.38  16 2.38
  27  0.382  0.118  0.118-   8 2.24  11 2.38  17 2.38  23 2.38
  28  0.868  0.868  0.868-   1 2.24  10 2.38  12 2.38  14 2.38
  29  0.118  0.382  0.118-   8 2.24  13 2.38  19 2.38  21 2.38
  30  0.632  0.632  0.868-   5 2.24  12 2.38  14 2.38  16 2.38
  31  0.382  0.382  0.382-   8 2.24  15 2.38  18 2.38  24 2.38
  32  0.868  0.632  0.632-   4 2.24  10 2.38  14 2.38  16 2.38
  33  0.118  0.618  0.882-   2 2.24  13 2.38  14 2.38  19 2.38
  34  0.368  0.868  0.368-   3 2.24  17 2.38  18 2.38  20 2.38
  35  0.118  0.882  0.618-   2 2.24   9 2.38  10 2.38  20 2.38
  36  0.368  0.632  0.132-   5 2.24  17 2.38  18 2.38  19 2.38
  37  0.382  0.882  0.882-   2 2.24  11 2.38  12 2.38  17 2.38
  38  0.132  0.632  0.368-   4 2.24  18 2.38  19 2.38  20 2.38
  39  0.382  0.618  0.618-   2 2.24  15 2.38  16 2.38  18 2.38
  40  0.132  0.868  0.132-   1 2.24  17 2.38  19 2.38  20 2.38
  41  0.618  0.118  0.882-   6 2.24  11 2.38  12 2.38  23 2.38
  42  0.368  0.132  0.632-   3 2.24   9 2.38  11 2.38  15 2.38
  43  0.882  0.382  0.882-   6 2.24  13 2.38  14 2.38  21 2.38
  44  0.132  0.368  0.632-   4 2.24   9 2.38  13 2.38  15 2.38
  45  0.882  0.118  0.618-   6 2.24   9 2.38  10 2.38  22 2.38
  46  0.132  0.132  0.868-   1 2.24   9 2.38  11 2.38  13 2.38
  47  0.618  0.382  0.618-   6 2.24  15 2.38  16 2.38  24 2.38
  48  0.368  0.368  0.868-   5 2.24  11 2.38  13 2.38  15 2.38
  49  0.618  0.618  0.382-   7 2.24  16 2.38  18 2.38  24 2.38
  50  0.882  0.618  0.118-   7 2.24  14 2.38  19 2.38  21 2.38
  51  0.618  0.882  0.118-   7 2.24  12 2.38  17 2.38  23 2.38
  52  0.882  0.882  0.382-   7 2.24  10 2.38  20 2.38  22 2.38
  53  0.868  0.368  0.368-   4 2.24  21 2.38  22 2.38  24 2.38
  54  0.868  0.132  0.132-   1 2.24  21 2.38  22 2.38  23 2.38
  55  0.632  0.132  0.368-   3 2.24  22 2.38  23 2.38  24 2.38
  56  0.632  0.368  0.132-   5 2.24  21 2.38  23 2.38  24 2.38
 
  LATTYP: Found a simple cubic cell.
 ALAT       =     9.8056010000
  
  Lattice vectors:
  
 A1 = (   9.8056010000,   0.0000000000,   0.0000000000)
 A2 = (   0.0000000000,   9.8056010000,   0.0000000000)
 A3 = (   0.0000000000,   0.0000000000,   9.8056010000)


Analysis of symmetry for initial positions (statically):
=====================================================================
 Subroutine PRICEL returns following result:
 
  LATTYP: Found a face centered cubic cell.
 ALAT       =     9.8056010000
  
  Lattice vectors:
  
 A1 = (   4.9028005000,   4.9028005000,   0.0000000000)
 A2 = (   4.9028005000,   0.0000000000,  -4.9028005000)
 A3 = (   0.0000000000,   4.9028005000,  -4.9028005000)
 
   4 primitive cells build up your supercell.
 

 Routine SETGRP: Setting up the symmetry group for a 
 simple cubic supercell.


 Subroutine GETGRP returns: Found 48 space group operations
 (whereof 24 operations were pure point group operations)
 out of a pool of 48 trial point group operations.


The static configuration has the point symmetry T_d .
 The point group associated with its full space group is O_h .


Analysis of symmetry for dynamics (positions and initial velocities):
=====================================================================
 Subroutine PRICEL returns following result:
 
  LATTYP: Found a face centered cubic cell.
 ALAT       =     9.8056010000
  
  Lattice vectors:
  
 A1 = (   4.9028005000,   4.9028005000,   0.0000000000)
 A2 = (   4.9028005000,   0.0000000000,  -4.9028005000)
 A3 = (   0.0000000000,   4.9028005000,  -4.9028005000)
 
   4 primitive cells build up your supercell.
 

 Routine SETGRP: Setting up the symmetry group for a 
 simple cubic supercell.


 Subroutine GETGRP returns: Found 48 space group operations
 (whereof 24 operations were pure point group operations)
 out of a pool of 48 trial point group operations.


The dynamic configuration has the point symmetry T_d .
 The point group associated with its full space group is O_h .


Analysis of structural, dynamic, and magnetic symmetry:
=====================================================================
 Subroutine PRICEL returns following result:
 
  LATTYP: Found a face centered cubic cell.
 ALAT       =     9.8056010000
  
  Lattice vectors:
  
 A1 = (   4.9028005000,   4.9028005000,   0.0000000000)
 A2 = (   4.9028005000,   0.0000000000,  -4.9028005000)
 A3 = (   0.0000000000,   4.9028005000,  -4.9028005000)
 
   4 primitive cells build up your supercell.
 

 Routine SETGRP: Setting up the symmetry group for a 
 simple cubic supercell.


 Subroutine GETGRP returns: Found 48 space group operations
 (whereof 24 operations were pure point group operations)
 out of a pool of 48 trial point group operations.


The magnetic configuration has the point symmetry T_d .
 The point group associated with its full space group is O_h .


 Subroutine INISYM returns: Found 48 space group operations
 (whereof 24 operations are pure point group operations),
 and found     4 'primitive' translations

 
 
 KPOINTS: k-points file                           

Automatic generation of k-mesh.
Space group operators:
 irot       det(A)        alpha          n_x          n_y          n_z        tau_x        tau_y        tau_z
    1     1.000000     0.000000     1.000000     0.000000     0.000000     0.000000     0.000000     0.000000
    2     1.000000   120.000000    -0.577350    -0.577350    -0.577350     0.000000     0.000000     0.000000
    3     1.000000   120.000000     0.577350     0.577350     0.577350     0.000000     0.000000     0.000000
    4    -1.000000    90.000000     0.000000     0.000000    -1.000000     0.000000     0.000000     0.000000
    5    -1.000000   180.000000     0.000000     0.707107     0.707107     0.000000     0.000000     0.000000
    6    -1.000000    90.000000     0.000000     1.000000     0.000000     0.000000     0.000000     0.000000
    7     1.000000   180.000000     0.000000     0.000000     1.000000     0.000000     0.000000     0.000000
    8     1.000000   120.000000    -0.577350     0.577350     0.577350     0.000000     0.000000     0.000000
    9     1.000000   120.000000    -0.577350     0.577350    -0.577350     0.000000     0.000000     0.000000
   10    -1.000000    90.000000     0.000000     0.000000     1.000000     0.000000     0.000000     0.000000
   11    -1.000000    90.000000    -1.000000     0.000000     0.000000     0.000000     0.000000     0.000000
   12    -1.000000   180.000000     0.707107     0.000000     0.707107     0.000000     0.000000     0.000000
   13     1.000000   120.000000     0.577350    -0.577350     0.577350     0.000000     0.000000     0.000000
   14     1.000000   120.000000    -0.577350    -0.577350     0.577350     0.000000     0.000000     0.000000
   15     1.000000   180.000000     1.000000     0.000000     0.000000     0.000000     0.000000     0.000000
   16    -1.000000    90.000000     0.000000    -1.000000     0.000000     0.000000     0.000000     0.000000
   17    -1.000000   180.000000     0.707107     0.707107     0.000000     0.000000     0.000000     0.000000
   18    -1.000000    90.000000     1.000000     0.000000     0.000000     0.000000     0.000000     0.000000
   19     1.000000   120.000000     0.577350    -0.577350    -0.577350     0.000000     0.000000     0.000000
   20     1.000000   180.000000     0.000000     1.000000     0.000000     0.000000     0.000000     0.000000
   21     1.000000   120.000000     0.577350     0.577350    -0.577350     0.000000     0.000000     0.000000
   22    -1.000000   180.000000     0.000000    -0.707107     0.707107     0.000000     0.000000     0.000000
   23    -1.000000   180.000000     0.707107    -0.707107     0.000000     0.000000     0.000000     0.000000
   24    -1.000000   180.000000     0.707107     0.000000    -0.707107     0.000000     0.000000     0.000000
   25    -1.000000     0.000000     1.000000     0.000000     0.000000     0.750000     0.750000    -0.750000
   26    -1.000000   120.000000    -0.577350    -0.577350    -0.577350     0.750000     0.750000    -0.750000
   27    -1.000000   120.000000     0.577350     0.577350     0.577350     0.750000     0.750000    -0.750000
   28     1.000000    90.000000     0.000000     0.000000    -1.000000     0.750000     0.750000    -0.750000
   29     1.000000   180.000000     0.000000     0.707107     0.707107     0.750000     0.750000    -0.750000
   30     1.000000    90.000000     0.000000     1.000000     0.000000     0.750000     0.750000    -0.750000
   31    -1.000000   180.000000     0.000000     0.000000     1.000000     0.750000     0.750000    -0.750000
   32    -1.000000   120.000000    -0.577350     0.577350     0.577350     0.750000     0.750000    -0.750000
   33    -1.000000   120.000000    -0.577350     0.577350    -0.577350     0.750000     0.750000    -0.750000
   34     1.000000    90.000000     0.000000     0.000000     1.000000     0.750000     0.750000    -0.750000
   35     1.000000    90.000000    -1.000000     0.000000     0.000000     0.750000     0.750000    -0.750000
   36     1.000000   180.000000     0.707107     0.000000     0.707107     0.750000     0.750000    -0.750000
   37    -1.000000   120.000000     0.577350    -0.577350     0.577350     0.750000     0.750000    -0.750000
   38    -1.000000   120.000000    -0.577350    -0.577350     0.577350     0.750000     0.750000    -0.750000
   39    -1.000000   180.000000     1.000000     0.000000     0.000000     0.750000     0.750000    -0.750000
   40     1.000000    90.000000     0.000000    -1.000000     0.000000     0.750000     0.750000    -0.750000
   41     1.000000   180.000000     0.707107     0.707107     0.000000     0.750000     0.750000    -0.750000
   42     1.000000    90.000000     1.000000     0.000000     0.000000     0.750000     0.750000    -0.750000
   43    -1.000000   120.000000     0.577350    -0.577350    -0.577350     0.750000     0.750000    -0.750000
   44    -1.000000   180.000000     0.000000     1.000000     0.000000     0.750000     0.750000    -0.750000
   45    -1.000000   120.000000     0.577350     0.577350    -0.577350     0.750000     0.750000    -0.750000
   46     1.000000   180.000000     0.000000    -0.707107     0.707107     0.750000     0.750000    -0.750000
   47     1.000000   180.000000     0.707107    -0.707107     0.000000     0.750000     0.750000    -0.750000
   48     1.000000   180.000000     0.707107     0.000000    -0.707107     0.750000     0.750000    -0.750000
 
 Subroutine IBZKPT returns following result:
 ===========================================
 
 Found      4 irreducible k-points:
 
 Following reciprocal coordinates:
            Coordinates               Weight
  0.000000  0.000000  0.000000      1.000000
  0.500000  0.000000  0.000000      3.000000
  0.500000  0.500000  0.000000      3.000000
  0.500000  0.500000  0.500000      1.000000
 
 Following cartesian coordinates:
            Coordinates               Weight
  0.000000  0.000000  0.000000      1.000000
  0.050991  0.000000  0.000000      3.000000
  0.050991  0.050991  0.000000      3.000000
  0.050991  0.050991  0.050991      1.000000
 
 TETIRR: Found      4 inequivalent tetrahedra from       48


--------------------------------------------------------------------------------------------------------




 Dimension of arrays:
   k-points           NKPTS =      4   k-points in BZ     NKDIM =      4   number of bands    NBANDS=    336
   number of dos      NEDOS =    301   number of ions     NIONS =     56
   non local maximal  LDIM  =      6   non local SUM 2l+1 LMDIM =     18
   total plane-waves  NPLWV = 512000
   max r-space proj   IRMAX =   5318   max aug-charges    IRDMAX=  21333
   dimension x,y,z NGX =    80 NGY =   80 NGZ =   80
   dimension x,y,z NGXF=   160 NGYF=  160 NGZF=  160
   support grid    NGXF=   160 NGYF=  160 NGZF=  160
   ions per type =               8  16  32
   NGX,Y,Z   is equivalent  to a cutoff of  13.56, 13.56, 13.56 a.u.
   NGXF,Y,Z  is equivalent  to a cutoff of  27.13, 27.13, 27.13 a.u.

 SYSTEM =  AlCo2S4                                 
 POSCAR =  AlCo2S4                                 

 Startparameter for this run:
   NWRITE =      2    write-flag & timer
   PREC   = accura    normal or accurate (medium, high low for compatibility)
   ISTART =      0    job   : 0-new  1-cont  2-samecut
   ICHARG =      1    charge: 1-file 2-atom 10-const
   ISPIN  =      2    spin polarized calculation?
   LNONCOLLINEAR =      F non collinear calculations
   LSORBIT =      F    spin-orbit coupling
   INIWAV =      1    electr: 0-lowe 1-rand  2-diag
   LASPH  =      F    aspherical Exc in radial PAW
   METAGGA=      F    non-selfconsistent MetaGGA calc.

 Electronic Relaxation 1
   ENCUT  =  520.0 eV  38.22 Ry    6.18 a.u.  18.23 18.23 18.23*2*pi/ulx,y,z
   ENINI  =  520.0     initial cutoff
   ENAUG  =  543.1 eV  augmentation charge cutoff
   NELM   =    100;   NELMIN=  2; NELMDL= -5     # of ELM steps 
   EDIFF  = 0.1E-04   stopping-criterion for ELM
   LREAL  =      T    real-space projection
   NLSPLINE    = F    spline interpolate recip. space projectors
   LCOMPAT=      F    compatible to vasp.4.4
   GGA_COMPAT  = T    GGA compatible to vasp.4.4-vasp.4.6
   LMAXPAW     = -100 max onsite density
   LMAXMIX     =    4 max onsite mixed and CHGCAR
   VOSKOWN=      0    Vosko Wilk Nusair interpolation
   ROPT   =   -0.00025  -0.00025  -0.00025
 Ionic relaxation
   EDIFFG = -.1E-01   stopping-criterion for IOM
   NSW    =    199    number of steps for IOM
   NBLOCK =      1;   KBLOCK =    199    inner block; outer block 
   IBRION =      2    ionic relax: 0-MD 1-quasi-New 2-CG
   NFREE  =      1    steps in history (QN), initial steepest desc. (CG)
   ISIF   =      3    stress and relaxation
   IWAVPR =     11    prediction:  0-non 1-charg 2-wave 3-comb
   ISYM   =      2    0-nonsym 1-usesym 2-fastsym
   LCORR  =      T    Harris-Foulkes like correction to forces

   POTIM  = 0.5000    time-step for ionic-motion
   TEIN   =    0.0    initial temperature
   TEBEG  =    0.0;   TEEND  =   0.0 temperature during run
   SMASS  =  -3.00    Nose mass-parameter (am)
   estimated Nose-frequenzy (Omega)   =  0.10E-29 period in steps =****** mass=  -0.220E-26a.u.
   SCALEE = 1.0000    scale energy and forces
   NPACO  =    256;   APACO  = 16.0  distance and # of slots for P.C.
   PSTRESS=    0.0 pullay stress

  Mass of Ions in am
   POMASS =  26.98 58.93 32.07
  Ionic Valenz
   ZVAL   =   3.00 15.00  6.00
  Atomic Wigner-Seitz radii
   RWIGS  =  -1.00 -1.00 -1.00
  virtual crystal weights 
   VCA    =   1.00  1.00  1.00
   NELECT =     456.0000    total number of electrons
   NUPDOWN=      -1.0000    fix difference up-down

 DOS related values:
   EMIN   =  10.00;   EMAX   =-10.00  energy-range for DOS
   EFERMI =   0.00
   ISMEAR =    -5;   SIGMA  =   0.05  broadening in eV -4-tet -1-fermi 0-gaus

 Electronic relaxation 2 (details)
   IALGO  =     38    algorithm
   LDIAG  =      T    sub-space diagonalisation (order eigenvalues)
   LSUBROT=      F    optimize rotation matrix (better conditioning)
   TURBO    =      0    0=normal 1=particle mesh
   IRESTART =      0    0=no restart 2=restart with 2 vectors
   NREBOOT  =      0    no. of reboots
   NMIN     =      0    reboot dimension
   EREF     =   0.00    reference energy to select bands
   IMIX   =      4    mixing-type and parameters
     AMIX     =   0.40;   BMIX     =  1.00
     AMIX_MAG =   1.60;   BMIX_MAG =  1.00
     AMIN     =   0.10
     WC   =   100.;   INIMIX=   1;  MIXPRE=   1;  MAXMIX= -45

 Intra band minimization:
   WEIMIN = 0.0010     energy-eigenvalue tresh-hold
   EBREAK =  0.74E-08  absolut break condition
   DEPER  =   0.30     relativ break condition  

   TIME   =   0.40     timestep for ELM

  volume/ion in A,a.u.               =      16.84       113.61
  Fermi-wavevector in a.u.,A,eV,Ry     =   1.285057  2.428405 22.468256  1.651370
  Thomas-Fermi vector in A             =   2.417213
 
 Write flags
   LWAVE        =      F    write WAVECAR
   LDOWNSAMPLE  =      F    k-point downsampling of WAVECAR
   LCHARG       =      F    write CHGCAR
   LVTOT        =      F    write LOCPOT, total local potential
   LVHAR        =      F    write LOCPOT, Hartree potential only
   LELF         =      F    write electronic localiz. function (ELF)
   LORBIT       =     11    0 simple, 1 ext, 2 COOP (PROOUT), +10 PAW based schemes


 Dipole corrections
   LMONO  =      F    monopole corrections only (constant potential shift)
   LDIPOL =      F    correct potential (dipole corrections)
   IDIPOL =      0    1-x, 2-y, 3-z, 4-all directions 
   EPSILON=  1.0000000 bulk dielectric constant

 Exchange correlation treatment:
   GGA     =    --    GGA type
   LEXCH   =     8    internal setting for exchange type
   VOSKOWN=      0    Vosko Wilk Nusair interpolation
   LHFCALC =     F    Hartree Fock is set to
   LHFONE  =     F    Hartree Fock one center treatment
   AEXX    =    0.0000 exact exchange contribution

 Linear response parameters
   LEPSILON=     F    determine dielectric tensor
   LRPA    =     F    only Hartree local field effects (RPA)
   LNABLA  =     F    use nabla operator in PAW spheres
   LVEL    =     F    velocity operator in full k-point grid
   LINTERFAST=   F  fast interpolation
   KINTER  =     0    interpolate to denser k-point grid
   CSHIFT  =0.1000    complex shift for real part using Kramers Kronig
   OMEGAMAX=  -1.0    maximum frequency
   DEG_THRESHOLD= 0.2000000E-02 threshold for treating states as degnerate
   RTIME   =   -0.100 relaxation time in fs
  (WPLASMAI=    0.000 imaginary part of plasma frequency in eV, 0.658/RTIME)
   DFIELD  = 0.0000000 0.0000000 0.0000000 field for delta impulse in time
 
 Orbital magnetization related:
   ORBITALMAG=     F  switch on orbital magnetization
   LCHIMAG   =     F  perturbation theory with respect to B field
   DQ        =  0.001000  dq finite difference perturbation B field
   LLRAUG    =     F  two centre corrections for induced B field



--------------------------------------------------------------------------------------------------------


 conjugate gradient relaxation of ions
 charge density and potential will be updated during run
 spin polarized calculation
 Variant of blocked Davidson
 Davidson routine will perform the subspace rotation
 perform sub-space diagonalisation
    after iterative eigenvector-optimisation
 modified Broyden-mixing scheme, WC =      100.0
 initial mixing is a Kerker type mixing with AMIX =  0.4000 and BMIX =      1.0000
 Hartree-type preconditioning will be used
 using additional bands          108
 real space projection scheme for non local part
 use partial core corrections
 calculate Harris-corrections to forces 
   (improved forces if not selfconsistent)
 use gradient corrections 
 use of overlap-Matrix (Vanderbilt PP)
 Fermi weights with tetrahedron method with Bloechl corrections


--------------------------------------------------------------------------------------------------------


  energy-cutoff  :      520.00
  volume of cell :      942.81
      direct lattice vectors                 reciprocal lattice vectors
     9.805601000  0.000000000  0.000000000     0.101982530  0.000000000  0.000000000
     0.000000000  9.805601000  0.000000000     0.000000000  0.101982530  0.000000000
     0.000000000  0.000000000  9.805601000     0.000000000  0.000000000  0.101982530

  length of vectors
     9.805601000  9.805601000  9.805601000     0.101982530  0.101982530  0.101982530


 
 k-points in units of 2pi/SCALE and weight: k-points file                           
   0.00000000  0.00000000  0.00000000       0.125
   0.05099127  0.00000000  0.00000000       0.375
   0.05099127  0.05099127  0.00000000       0.375
   0.05099127  0.05099127  0.05099127       0.125
 
 k-points in reciprocal lattice and weights: k-points file                           
   0.00000000  0.00000000  0.00000000       0.125
   0.50000000  0.00000000  0.00000000       0.375
   0.50000000  0.50000000  0.00000000       0.375
   0.50000000  0.50000000  0.50000000       0.125
 
 position of ions in fractional coordinates (direct lattice) 
   0.00000000  0.00000000  0.00000000
   0.25000000  0.75000000  0.75000000
   0.50000000  0.00000000  0.50000000
   0.00000000  0.50000000  0.50000000
   0.50000000  0.50000000  0.00000000
   0.75000000  0.25000000  0.75000000
   0.75000000  0.75000000  0.25000000
   0.25000000  0.25000000  0.25000000
   0.12500000  0.12500000  0.62500000
   0.87500000  0.87500000  0.62500000
   0.37500000  0.12500000  0.87500000
   0.62500000  0.87500000  0.87500000
   0.12500000  0.37500000  0.87500000
   0.87500000  0.62500000  0.87500000
   0.37500000  0.37500000  0.62500000
   0.62500000  0.62500000  0.62500000
   0.37500000  0.87500000  0.12500000
   0.37500000  0.62500000  0.37500000
   0.12500000  0.62500000  0.12500000
   0.12500000  0.87500000  0.37500000
   0.87500000  0.37500000  0.12500000
   0.87500000  0.12500000  0.37500000
   0.62500000  0.12500000  0.12500000
   0.62500000  0.37500000  0.37500000
   0.11787400  0.11787400  0.38212600
   0.63212600  0.86787400  0.63212600
   0.38212600  0.11787400  0.11787400
   0.86787400  0.86787400  0.86787400
   0.11787400  0.38212600  0.11787400
   0.63212600  0.63212600  0.86787400
   0.38212600  0.38212600  0.38212600
   0.86787400  0.63212600  0.63212600
   0.11787400  0.61787400  0.88212600
   0.36787400  0.86787400  0.36787400
   0.11787400  0.88212600  0.61787400
   0.36787400  0.63212600  0.13212600
   0.38212600  0.88212600  0.88212600
   0.13212600  0.63212600  0.36787400
   0.38212600  0.61787400  0.61787400
   0.13212600  0.86787400  0.13212600
   0.61787400  0.11787400  0.88212600
   0.36787400  0.13212600  0.63212600
   0.88212600  0.38212600  0.88212600
   0.13212600  0.36787400  0.63212600
   0.88212600  0.11787400  0.61787400
   0.13212600  0.13212600  0.86787400
   0.61787400  0.38212600  0.61787400
   0.36787400  0.36787400  0.86787400
   0.61787400  0.61787400  0.38212600
   0.88212600  0.61787400  0.11787400
   0.61787400  0.88212600  0.11787400
   0.88212600  0.88212600  0.38212600
   0.86787400  0.36787400  0.36787400
   0.86787400  0.13212600  0.13212600
   0.63212600  0.13212600  0.36787400
   0.63212600  0.36787400  0.13212600
 
 position of ions in cartesian coordinates  (Angst):
   0.00000000  0.00000000  0.00000000
   2.45140025  7.35420075  7.35420075
   4.90280050  0.00000000  4.90280050
   0.00000000  4.90280050  4.90280050
   4.90280050  4.90280050  0.00000000
   7.35420075  2.45140025  7.35420075
   7.35420075  7.35420075  2.45140025
   2.45140025  2.45140025  2.45140025
   1.22570012  1.22570012  6.12850062
   8.57990087  8.57990087  6.12850062
   3.67710037  1.22570012  8.57990087
   6.12850062  8.57990087  8.57990087
   1.22570012  3.67710037  8.57990087
   8.57990087  6.12850062  8.57990087
   3.67710037  3.67710037  6.12850062
   6.12850062  6.12850062  6.12850062
   3.67710037  8.57990087  1.22570012
   3.67710037  6.12850062  3.67710037
   1.22570012  6.12850062  1.22570012
   1.22570012  8.57990087  3.67710037
   8.57990087  3.67710037  1.22570012
   8.57990087  1.22570012  3.67710037
   6.12850062  1.22570012  1.22570012
   6.12850062  3.67710037  3.67710037
   1.15582541  1.15582541  3.74697509
   6.19837534  8.51002616  6.19837534
   3.74697509  1.15582541  1.15582541
   8.51002616  8.51002616  8.51002616
   1.15582541  3.74697509  1.15582541
   6.19837534  6.19837534  8.51002616
   3.74697509  3.74697509  3.74697509
   8.51002616  6.19837534  6.19837534
   1.15582541  6.05862591  8.64977559
   3.60722566  8.51002616  3.60722566
   1.15582541  8.64977559  6.05862591
   3.60722566  6.19837534  1.29557484
   3.74697509  8.64977559  8.64977559
   1.29557484  6.19837534  3.60722566
   3.74697509  6.05862591  6.05862591
   1.29557484  8.51002616  1.29557484
   6.05862591  1.15582541  8.64977559
   3.60722566  1.29557484  6.19837534
   8.64977559  3.74697509  8.64977559
   1.29557484  3.60722566  6.19837534
   8.64977559  1.15582541  6.05862591
   1.29557484  1.29557484  8.51002616
   6.05862591  3.74697509  6.05862591
   3.60722566  3.60722566  8.51002616
   6.05862591  6.05862591  3.74697509
   8.64977559  6.05862591  1.15582541
   6.05862591  8.64977559  1.15582541
   8.64977559  8.64977559  3.74697509
   8.51002616  3.60722566  3.60722566
   8.51002616  1.29557484  1.29557484
   6.19837534  1.29557484  3.60722566
   6.19837534  3.60722566  1.29557484
 


--------------------------------------------------------------------------------------------------------


 k-point  1 :   0.0000 0.0000 0.0000  plane waves:   25413
 k-point  2 :   0.5000 0.0000 0.0000  plane waves:   25452
 k-point  3 :   0.5000 0.5000 0.0000  plane waves:   25404
 k-point  4 :   0.5000 0.5000 0.5000  plane waves:   25288

 maximum and minimum number of plane-waves per node :     25452    25288

 maximum number of plane-waves:     25452
 maximum index in each direction: 
   IXMAX=   18   IYMAX=   18   IZMAX=   18
   IXMIN=  -18   IYMIN=  -18   IZMIN=  -18


 serial   3D FFT for wavefunctions
 parallel 3D FFT for charge:
    minimum data exchange during FFTs selected (reduces bandwidth)


 total amount of memory used by VASP MPI-rank0   139826. kBytes
=======================================================================

   base      :      30000. kBytes
   nonlr-proj:      28988. kBytes
   fftplans  :       5433. kBytes
   grid      :      50268. kBytes
   one-center:       1741. kBytes
   wavefun   :      23396. kBytes
 
     INWAV:  cpu time    0.0000: real time    0.0000
 Broyden mixing: mesh for mixing (old mesh)
   NGX = 37   NGY = 37   NGZ = 37
  (NGX  =160   NGY  =160   NGZ  =160)
  gives a total of  50653 points

 initial charge density was supplied:
 charge density of overlapping atoms calculated
 number of electron     456.0000000 magnetization     104.0000000
 keeping initial charge density in first step


--------------------------------------------------------------------------------------------------------


 Maximum index for non-local projection operator         5137
 Maximum index for augmentation-charges          990 (set IRDMAX)


--------------------------------------------------------------------------------------------------------


 First call to EWALD:  gamma=   0.181
 Maximum number of real-space cells 3x 3x 3
 Maximum number of reciprocal cells 3x 3x 3

    FEWALD:  cpu time    0.0024: real time    0.0024


--------------------------------------- Iteration      1(   1)  ---------------------------------------


    POTLOK:  cpu time    0.1514: real time    0.1608
    SETDIJ:  cpu time    0.0165: real time    0.0168
     EDDAV:  cpu time   11.4594: real time   11.5328
 BZINTS: Fermi energy: 21.605825;456.000000 electrons
         Band energy:1183.032368;  BLOECHL correction: -0.049515
       DOS:  cpu time    0.0045: real time    0.0046
    --------------------------------------------
      LOOP:  cpu time   11.6318: real time   11.7150

 eigenvalue-minimisations  :  5568
 total energy-change (2. order) : 0.5046656E+04  (-0.2253476E+05)
 number of electron     456.0000000 magnetization     104.0000000
 augmentation part      456.0000000 magnetization     104.0000000

 Free energy of the ion-electron system (eV)
  ---------------------------------------------------
  alpha Z        PSCENC =      1200.06152000
  Ewald energy   TEWEN  =    -30488.81284551
  -Hartree energ DENC   =    -22171.20548582
  -exchange      EXHF   =         0.00000000
  -V(xc)+E(xc)   XCENC  =      1671.93752534
  PAW double counting   =     44960.98033804   -47765.97455241
  entropy T*S    EENTRO =         0.00000000
  eigenvalues    EBANDS =      1183.03236774
  atomic energy  EATOM  =     56456.63731953
  Solvation  Ediel_sol  =         0.00000000
  ---------------------------------------------------
  free energy    TOTEN  =      5046.65618692 eV

  energy without entropy =     5046.65618692  energy(sigma->0) =     5046.65618692


--------------------------------------------------------------------------------------------------------




--------------------------------------- Iteration      1(   2)  ---------------------------------------


     EDDAV:  cpu time   11.1551: real time   11.2304
 BZINTS: Fermi energy: 10.061657;456.000000 electrons
         Band energy:***********;  BLOECHL correction: -0.004354
       DOS:  cpu time    0.0035: real time    0.0035
    --------------------------------------------
      LOOP:  cpu time   11.1586: real time   11.2339

 eigenvalue-minimisations  :  5376
 total energy-change (2. order) :-0.4717020E+04  (-0.4403316E+04)
 number of electron     456.0000000 magnetization     104.0000000
 augmentation part      456.0000000 magnetization     104.0000000

 Free energy of the ion-electron system (eV)
  ---------------------------------------------------
  alpha Z        PSCENC =      1200.06152000
  Ewald energy   TEWEN  =    -30488.81284551
  -Hartree energ DENC   =    -22171.20548582
  -exchange      EXHF   =         0.00000000
  -V(xc)+E(xc)   XCENC  =      1671.93752534
  PAW double counting   =     44960.98033804   -47765.97455241
  entropy T*S    EENTRO =         0.00000000
  eigenvalues    EBANDS =     -3533.98773844
  atomic energy  EATOM  =     56456.63731953
  Solvation  Ediel_sol  =         0.00000000
  ---------------------------------------------------
  free energy    TOTEN  =       329.63608074 eV

  energy without entropy =      329.63608074  energy(sigma->0) =      329.63608074


--------------------------------------------------------------------------------------------------------




--------------------------------------- Iteration      1(   3)  ---------------------------------------


     EDDAV:  cpu time   12.5467: real time   12.6303
 BZINTS: Fermi energy:  8.990683;456.000000 electrons
         Band energy:***********;  BLOECHL correction: -0.498027
       DOS:  cpu time    0.0035: real time    0.0035
    --------------------------------------------
      LOOP:  cpu time   12.5502: real time   12.6338

 eigenvalue-minimisations  :  6192
 total energy-change (2. order) :-0.6335038E+03  (-0.6038093E+03)
 number of electron     456.0000000 magnetization     104.0000000
 augmentation part      456.0000000 magnetization     104.0000000

 Free energy of the ion-electron system (eV)
  ---------------------------------------------------
  alpha Z        PSCENC =      1200.06152000
  Ewald energy   TEWEN  =    -30488.81284551
  -Hartree energ DENC   =    -22171.20548582
  -exchange      EXHF   =         0.00000000
  -V(xc)+E(xc)   XCENC  =      1671.93752534
  PAW double counting   =     44960.98033804   -47765.97455241
  entropy T*S    EENTRO =         0.00000000
  eigenvalues    EBANDS =     -4167.49156850
  atomic energy  EATOM  =     56456.63731953
  Solvation  Ediel_sol  =         0.00000000
  ---------------------------------------------------
  free energy    TOTEN  =      -303.86774933 eV

  energy without entropy =     -303.86774933  energy(sigma->0) =     -303.86774933


--------------------------------------------------------------------------------------------------------




--------------------------------------- Iteration      1(   4)  ---------------------------------------


     EDDAV:  cpu time   13.1417: real time   13.2287
 BZINTS: Fermi energy:  8.896362;456.000000 electrons
         Band energy:***********;  BLOECHL correction: -0.540381
       DOS:  cpu time    0.0037: real time    0.0037
    --------------------------------------------
      LOOP:  cpu time   13.1454: real time   13.2324

 eigenvalue-minimisations  :  6528
 total energy-change (2. order) :-0.3064829E+02  (-0.3036960E+02)
 number of electron     456.0000000 magnetization     104.0000000
 augmentation part      456.0000000 magnetization     104.0000000

 Free energy of the ion-electron system (eV)
  ---------------------------------------------------
  alpha Z        PSCENC =      1200.06152000
  Ewald energy   TEWEN  =    -30488.81284551
  -Hartree energ DENC   =    -22171.20548582
  -exchange      EXHF   =         0.00000000
  -V(xc)+E(xc)   XCENC  =      1671.93752534
  PAW double counting   =     44960.98033804   -47765.97455241
  entropy T*S    EENTRO =         0.00000000
  eigenvalues    EBANDS =     -4198.13985446
  atomic energy  EATOM  =     56456.63731953
  Solvation  Ediel_sol  =         0.00000000
  ---------------------------------------------------
  free energy    TOTEN  =      -334.51603529 eV

  energy without entropy =     -334.51603529  energy(sigma->0) =     -334.51603529


--------------------------------------------------------------------------------------------------------




--------------------------------------- Iteration      1(   5)  ---------------------------------------


     EDDAV:  cpu time   13.2789: real time   13.3680
 BZINTS: Fermi energy:  8.893056;456.000000 electrons
         Band energy:***********;  BLOECHL correction: -0.540462
       DOS:  cpu time    0.0035: real time    0.0035
    CHARGE:  cpu time    0.8319: real time    0.8367
    MIXING:  cpu time    0.0049: real time    0.0050
    --------------------------------------------
      LOOP:  cpu time   14.1193: real time   14.2133

 eigenvalue-minimisations  :  6576
 total energy-change (2. order) :-0.5836546E+00  (-0.5828767E+00)
 number of electron     455.9999911 magnetization      83.1254040
 augmentation part      111.2127785 magnetization      66.8833951

 Broyden mixing:
  rms(total) = 0.88683E+01    rms(broyden)= 0.88680E+01
  rms(prec ) = 0.10763E+02
  weight for this iteration     100.00

 Free energy of the ion-electron system (eV)
  ---------------------------------------------------
  alpha Z        PSCENC =      1200.06152000
  Ewald energy   TEWEN  =    -30488.81284551
  -Hartree energ DENC   =    -22171.20548582
  -exchange      EXHF   =         0.00000000
  -V(xc)+E(xc)   XCENC  =      1671.93752534
  PAW double counting   =     44960.98033804   -47765.97455241
  entropy T*S    EENTRO =         0.00000000
  eigenvalues    EBANDS =     -4198.72350908
  atomic energy  EATOM  =     56456.63731953
  Solvation  Ediel_sol  =         0.00000000
  ---------------------------------------------------
  free energy    TOTEN  =      -335.09968991 eV

  energy without entropy =     -335.09968991  energy(sigma->0) =     -335.09968991


--------------------------------------------------------------------------------------------------------




--------------------------------------- Iteration      1(   6)  ---------------------------------------


    POTLOK:  cpu time    0.1431: real time    0.1450
    SETDIJ:  cpu time    0.0151: real time    0.0151
     EDDAV:  cpu time   12.3386: real time   12.4164
 BZINTS: Fermi energy:  4.646388;456.000000 electrons
         Band energy:***********;  BLOECHL correction: -0.145298
       DOS:  cpu time    0.0038: real time    0.0038
    CHARGE:  cpu time    0.7998: real time    0.8042
    MIXING:  cpu time    0.0035: real time    0.0036
    --------------------------------------------
      LOOP:  cpu time   13.3040: real time   13.3880

 eigenvalue-minimisations  :  6096
 total energy-change (2. order) :-0.1431198E+03  (-0.6763473E+02)
 number of electron     455.9999863 magnetization      74.1817411
 augmentation part      170.8596579 magnetization      62.2480702

 Broyden mixing:
  rms(total) = 0.16577E+02    rms(broyden)= 0.16577E+02
  rms(prec ) = 0.19841E+02
  weight for this iteration     100.00

 eigenvalues of (default mixing * dielectric matrix)
  average eigenvalue GAMMA=   0.0750
  0.0750

 Free energy of the ion-electron system (eV)
  ---------------------------------------------------
  alpha Z        PSCENC =      1200.06152000
  Ewald energy   TEWEN  =    -30488.81284551
  -Hartree energ DENC   =    -20509.43352354
  -exchange      EXHF   =         0.00000000
  -V(xc)+E(xc)   XCENC  =      1613.23246945
  PAW double counting   =     48316.88686863   -50901.00171086
  entropy T*S    EENTRO =         0.00000000
  eigenvalues    EBANDS =     -6165.78962105
  atomic energy  EATOM  =     56456.63731953
  Solvation  Ediel_sol  =         0.00000000
  ---------------------------------------------------
  free energy    TOTEN  =      -478.21952334 eV

  energy without entropy =     -478.21952334  energy(sigma->0) =     -478.21952334


--------------------------------------------------------------------------------------------------------




--------------------------------------- Iteration      1(   7)  ---------------------------------------


    POTLOK:  cpu time    0.1384: real time    0.1424
    SETDIJ:  cpu time    0.0150: real time    0.0151
     EDDAV:  cpu time   12.5464: real time   12.6239
 BZINTS: Fermi energy:  5.235566;456.000000 electrons
         Band energy:***********;  BLOECHL correction: -0.245684
       DOS:  cpu time    0.0038: real time    0.0038
    CHARGE:  cpu time    0.8276: real time    0.8324
    MIXING:  cpu time    0.0031: real time    0.0031
    --------------------------------------------
      LOOP:  cpu time   13.5343: real time   13.6208

 eigenvalue-minimisations  :  6192
 total energy-change (2. order) : 0.1789972E+03  (-0.2454270E+02)
 number of electron     455.9999872 magnetization      54.5659892
 augmentation part      146.3851982 magnetization      45.7928902

 Broyden mixing:
  rms(total) = 0.58023E+01    rms(broyden)= 0.58010E+01
  rms(prec ) = 0.70934E+01
  weight for this iteration     100.00

 eigenvalues of (default mixing * dielectric matrix)
  average eigenvalue GAMMA=   0.6084
  0.7508  0.4660

 Free energy of the ion-electron system (eV)
  ---------------------------------------------------
  alpha Z        PSCENC =      1200.06152000
  Ewald energy   TEWEN  =    -30488.81284551
  -Hartree energ DENC   =    -21378.43325339
  -exchange      EXHF   =         0.00000000
  -V(xc)+E(xc)   XCENC  =      1630.56626279
  PAW double counting   =     51282.47169881   -54048.41073937
  entropy T*S    EENTRO =         0.00000000
  eigenvalues    EBANDS =     -4953.30228143
  atomic energy  EATOM  =     56456.63731953
  Solvation  Ediel_sol  =         0.00000000
  ---------------------------------------------------
  free energy    TOTEN  =      -299.22231856 eV

  energy without entropy =     -299.22231856  energy(sigma->0) =     -299.22231856


--------------------------------------------------------------------------------------------------------




--------------------------------------- Iteration      1(   8)  ---------------------------------------


    POTLOK:  cpu time    0.1416: real time    0.1431
    SETDIJ:  cpu time    0.0149: real time    0.0150
     EDDAV:  cpu time   14.1525: real time   14.2431
 BZINTS: Fermi energy:  6.281353;456.000000 electrons
         Band energy:***********;  BLOECHL correction: -0.363159
       DOS:  cpu time    0.0041: real time    0.0041
    CHARGE:  cpu time    0.8286: real time    0.8333
    MIXING:  cpu time    0.0034: real time    0.0034
    --------------------------------------------
      LOOP:  cpu time   15.1450: real time   15.2419

 eigenvalue-minimisations  :  7152
 total energy-change (2. order) : 0.7197863E+01  (-0.9493808E+01)
 number of electron     455.9999881 magnetization      32.6411827
 augmentation part      129.0289217 magnetization      25.2039218

 Broyden mixing:
  rms(total) = 0.23417E+01    rms(broyden)= 0.23406E+01
  rms(prec ) = 0.25501E+01
  weight for this iteration     100.00

 eigenvalues of (default mixing * dielectric matrix)
  average eigenvalue GAMMA=   0.7457
  1.2608  0.4881  0.4881

 Free energy of the ion-electron system (eV)
  ---------------------------------------------------
  alpha Z        PSCENC =      1200.06152000
  Ewald energy   TEWEN  =    -30488.81284551
  -Hartree energ DENC   =    -21806.81522384
  -exchange      EXHF   =         0.00000000
  -V(xc)+E(xc)   XCENC  =      1634.91592072
  PAW double counting   =     55829.18565614   -58647.05778340
  entropy T*S    EENTRO =         0.00000000
  eigenvalues    EBANDS =     -4470.13901878
  atomic energy  EATOM  =     56456.63731953
  Solvation  Ediel_sol  =         0.00000000
  ---------------------------------------------------
  free energy    TOTEN  =      -292.02445515 eV

  energy without entropy =     -292.02445515  energy(sigma->0) =     -292.02445515


--------------------------------------------------------------------------------------------------------




--------------------------------------- Iteration      1(   9)  ---------------------------------------


    POTLOK:  cpu time    0.1403: real time    0.1428
    SETDIJ:  cpu time    0.0149: real time    0.0149
     EDDAV:  cpu time   12.7825: real time   12.8680
 BZINTS: Fermi energy:  5.965647;456.000000 electrons
         Band energy:***********;  BLOECHL correction: -0.273698
       DOS:  cpu time    0.0036: real time    0.0036
    CHARGE:  cpu time    0.8032: real time    0.8083
    MIXING:  cpu time    0.0037: real time    0.0038
    --------------------------------------------
      LOOP:  cpu time   13.7482: real time   13.8415

 eigenvalue-minimisations  :  6288
 total energy-change (2. order) :-0.5787596E+01  (-0.1884757E+01)
 number of electron     455.9999875 magnetization      20.9952274
 augmentation part      132.9443652 magnetization      18.2949049

 Broyden mixing:
  rms(total) = 0.13948E+01    rms(broyden)= 0.13941E+01
  rms(prec ) = 0.14352E+01
  weight for this iteration     100.00

 eigenvalues of (default mixing * dielectric matrix)
  average eigenvalue GAMMA=   0.8971
  1.9510  0.7126  0.4625  0.4625

 Free energy of the ion-electron system (eV)
  ---------------------------------------------------
  alpha Z        PSCENC =      1200.06152000
  Ewald energy   TEWEN  =    -30488.81284551
  -Hartree energ DENC   =    -21729.67175387
  -exchange      EXHF   =         0.00000000
  -V(xc)+E(xc)   XCENC  =      1628.59997353
  PAW double counting   =     60906.04048881   -63717.76074792
  entropy T*S    EENTRO =         0.00000000
  eigenvalues    EBANDS =     -4552.90600583
  atomic energy  EATOM  =     56456.63731953
  Solvation  Ediel_sol  =         0.00000000
  ---------------------------------------------------
  free energy    TOTEN  =      -297.81205125 eV

  energy without entropy =     -297.81205125  energy(sigma->0) =     -297.81205125


--------------------------------------------------------------------------------------------------------




--------------------------------------- Iteration      1(  10)  ---------------------------------------


    POTLOK:  cpu time    0.1431: real time    0.1441
    SETDIJ:  cpu time    0.0153: real time    0.0154
     EDDAV:  cpu time   13.7576: real time   13.8453
 BZINTS: Fermi energy:  5.970810;456.000000 electrons
         Band energy:***********;  BLOECHL correction: -0.304071
       DOS:  cpu time    0.0039: real time    0.0039
    CHARGE:  cpu time    0.8015: real time    0.8062
    MIXING:  cpu time    0.0037: real time    0.0037
    --------------------------------------------
      LOOP:  cpu time   14.7250: real time   14.8186

 eigenvalue-minimisations  :  6912
 total energy-change (2. order) :-0.2095955E+01  (-0.1062936E+00)
 number of electron     455.9999873 magnetization      14.1722084
 augmentation part      133.6642638 magnetization      12.5850609

 Broyden mixing:
  rms(total) = 0.98453E+00    rms(broyden)= 0.98427E+00
  rms(prec ) = 0.10637E+01
  weight for this iteration     100.00

 eigenvalues of (default mixing * dielectric matrix)
  average eigenvalue GAMMA=   0.9410
  2.0067  1.1109  0.5069  0.5069  0.5736

 Free energy of the ion-electron system (eV)
  ---------------------------------------------------
  alpha Z        PSCENC =      1200.06152000
  Ewald energy   TEWEN  =    -30488.81284551
  -Hartree energ DENC   =    -21740.21105211
  -exchange      EXHF   =         0.00000000
  -V(xc)+E(xc)   XCENC  =      1627.53910843
  PAW double counting   =     61777.35815494   -64586.80363386
  entropy T*S    EENTRO =         0.00000000
  eigenvalues    EBANDS =     -4545.67657736
  atomic energy  EATOM  =     56456.63731953
  Solvation  Ediel_sol  =         0.00000000
  ---------------------------------------------------
  free energy    TOTEN  =      -299.90800593 eV

  energy without entropy =     -299.90800593  energy(sigma->0) =     -299.90800593


--------------------------------------------------------------------------------------------------------




--------------------------------------- Iteration      1(  11)  ---------------------------------------


    POTLOK:  cpu time    0.1390: real time    0.1412
    SETDIJ:  cpu time    0.0148: real time    0.0151
     EDDAV:  cpu time   12.9899: real time   13.0724
 BZINTS: Fermi energy:  6.104656;456.000000 electrons
         Band energy:***********;  BLOECHL correction: -0.260245
       DOS:  cpu time    0.0036: real time    0.0036
    CHARGE:  cpu time    0.8022: real time    0.8068
    MIXING:  cpu time    0.0037: real time    0.0037
    --------------------------------------------
      LOOP:  cpu time   13.9531: real time   14.0428

 eigenvalue-minimisations  :  6432
 total energy-change (2. order) :-0.4958739E+00  (-0.4077118E-01)
 number of electron     455.9999873 magnetization       9.0952818
 augmentation part      133.0501053 magnetization       7.1382878

 Broyden mixing:
  rms(total) = 0.50228E+00    rms(broyden)= 0.50223E+00
  rms(prec ) = 0.53949E+00
  weight for this iteration     100.00

 eigenvalues of (default mixing * dielectric matrix)
  average eigenvalue GAMMA=   1.0294
  1.9034  1.9034  0.8100  0.4887  0.4887  0.5822

 Free energy of the ion-electron system (eV)
  ---------------------------------------------------
  alpha Z        PSCENC =      1200.06152000
  Ewald energy   TEWEN  =    -30488.81284551
  -Hartree energ DENC   =    -21773.74499309
  -exchange      EXHF   =         0.00000000
  -V(xc)+E(xc)   XCENC  =      1628.07068550
  PAW double counting   =     60961.69624443   -63769.28512596
  entropy T*S    EENTRO =         0.00000000
  eigenvalues    EBANDS =     -4515.02668473
  atomic energy  EATOM  =     56456.63731953
  Solvation  Ediel_sol  =         0.00000000
  ---------------------------------------------------
  free energy    TOTEN  =      -300.40387984 eV

  energy without entropy =     -300.40387984  energy(sigma->0) =     -300.40387984


--------------------------------------------------------------------------------------------------------




--------------------------------------- Iteration      1(  12)  ---------------------------------------


    POTLOK:  cpu time    0.1402: real time    0.1428
    SETDIJ:  cpu time    0.0150: real time    0.0150
     EDDAV:  cpu time   13.2619: real time   13.3465
 BZINTS: Fermi energy:  6.201114;456.000000 electrons
         Band energy:***********;  BLOECHL correction: -0.257841
       DOS:  cpu time    0.0039: real time    0.0039
    CHARGE:  cpu time    0.8091: real time    0.8136
    MIXING:  cpu time    0.0041: real time    0.0041
    --------------------------------------------
      LOOP:  cpu time   14.2340: real time   14.3259

 eigenvalue-minimisations  :  6624
 total energy-change (2. order) :-0.2434457E+00  (-0.3512020E-01)
 number of electron     455.9999874 magnetization       7.5580556
 augmentation part      132.3803049 magnetization       5.5305620

 Broyden mixing:
  rms(total) = 0.11345E+00    rms(broyden)= 0.11340E+00
  rms(prec ) = 0.12047E+00
  weight for this iteration     100.00

 eigenvalues of (default mixing * dielectric matrix)
  average eigenvalue GAMMA=   1.0915
  2.1747  2.1747  0.4889  0.4889  0.8404  0.8404  0.6324

 Free energy of the ion-electron system (eV)
  ---------------------------------------------------
  alpha Z        PSCENC =      1200.06152000
  Ewald energy   TEWEN  =    -30488.81284551
  -Hartree energ DENC   =    -21801.70999395
  -exchange      EXHF   =         0.00000000
  -V(xc)+E(xc)   XCENC  =      1628.70997575
  PAW double counting   =     60622.36665566   -63429.69000734
  entropy T*S    EENTRO =         0.00000000
  eigenvalues    EBANDS =     -4488.20994970
  atomic energy  EATOM  =     56456.63731953
  Solvation  Ediel_sol  =         0.00000000
  ---------------------------------------------------
  free energy    TOTEN  =      -300.64732556 eV

  energy without entropy =     -300.64732556  energy(sigma->0) =     -300.64732556


--------------------------------------------------------------------------------------------------------




--------------------------------------- Iteration      1(  13)  ---------------------------------------


    POTLOK:  cpu time    0.1366: real time    0.1419
    SETDIJ:  cpu time    0.0151: real time    0.0152
     EDDAV:  cpu time   13.0009: real time   13.0837
 BZINTS: Fermi energy:  6.208460;456.000000 electrons
         Band energy:***********;  BLOECHL correction: -0.262483
       DOS:  cpu time    0.0037: real time    0.0037
    CHARGE:  cpu time    0.8087: real time    0.8132
    MIXING:  cpu time    0.0041: real time    0.0041
    --------------------------------------------
      LOOP:  cpu time   13.9691: real time   14.0619

 eigenvalue-minimisations  :  6432
 total energy-change (2. order) :-0.3291783E-01  (-0.8068964E-02)
 number of electron     455.9999874 magnetization       7.8654236
 augmentation part      132.4012620 magnetization       5.8654858

 Broyden mixing:
  rms(total) = 0.10459E+00    rms(broyden)= 0.10459E+00
  rms(prec ) = 0.10802E+00
  weight for this iteration     100.00

 eigenvalues of (default mixing * dielectric matrix)
  average eigenvalue GAMMA=   1.0686
  2.1446  2.1446  1.0220  1.0220  0.4888  0.4888  0.6238  0.6140

 Free energy of the ion-electron system (eV)
  ---------------------------------------------------
  alpha Z        PSCENC =      1200.06152000
  Ewald energy   TEWEN  =    -30488.81284551
  -Hartree energ DENC   =    -21804.96146889
  -exchange      EXHF   =         0.00000000
  -V(xc)+E(xc)   XCENC  =      1628.79543420
  PAW double counting   =     60603.74862029   -63410.55723348
  entropy T*S    EENTRO =         0.00000000
  eigenvalues    EBANDS =     -4485.59158953
  atomic energy  EATOM  =     56456.63731953
  Solvation  Ediel_sol  =         0.00000000
  ---------------------------------------------------
  free energy    TOTEN  =      -300.68024339 eV

  energy without entropy =     -300.68024339  energy(sigma->0) =     -300.68024339


--------------------------------------------------------------------------------------------------------




--------------------------------------- Iteration      1(  14)  ---------------------------------------


    POTLOK:  cpu time    0.1394: real time    0.1430
    SETDIJ:  cpu time    0.0150: real time    0.0150
     EDDAV:  cpu time   12.8624: real time   12.9440
 BZINTS: Fermi energy:  6.202888;456.000000 electrons
         Band energy:***********;  BLOECHL correction: -0.258972
       DOS:  cpu time    0.0039: real time    0.0039
    CHARGE:  cpu time    0.8093: real time    0.8136
    MIXING:  cpu time    0.0040: real time    0.0040
    --------------------------------------------
      LOOP:  cpu time   13.8339: real time   13.9236

 eigenvalue-minimisations  :  6384
 total energy-change (2. order) : 0.7509218E-03  (-0.4579443E-03)
 number of electron     455.9999874 magnetization       7.7637584
 augmentation part      132.4205938 magnetization       5.8118011

 Broyden mixing:
  rms(total) = 0.55699E-01    rms(broyden)= 0.55699E-01
  rms(prec ) = 0.59178E-01
  weight for this iteration     100.00

 eigenvalues of (default mixing * dielectric matrix)
  average eigenvalue GAMMA=   1.1029
  2.3969  1.8049  1.3413  1.3413  0.4893  0.4893  0.7886  0.6373  0.6373

 Free energy of the ion-electron system (eV)
  ---------------------------------------------------
  alpha Z        PSCENC =      1200.06152000
  Ewald energy   TEWEN  =    -30488.81284551
  -Hartree energ DENC   =    -21804.09290820
  -exchange      EXHF   =         0.00000000
  -V(xc)+E(xc)   XCENC  =      1628.81510554
  PAW double counting   =     60609.23439730   -63416.49036029
  entropy T*S    EENTRO =         0.00000000
  eigenvalues    EBANDS =     -4486.03172084
  atomic energy  EATOM  =     56456.63731953
  Solvation  Ediel_sol  =         0.00000000
  ---------------------------------------------------
  free energy    TOTEN  =      -300.67949247 eV

  energy without entropy =     -300.67949247  energy(sigma->0) =     -300.67949247


--------------------------------------------------------------------------------------------------------




--------------------------------------- Iteration      1(  15)  ---------------------------------------


    POTLOK:  cpu time    0.1394: real time    0.1431
    SETDIJ:  cpu time    0.0149: real time    0.0150
     EDDAV:  cpu time   13.5681: real time   13.6540
 BZINTS: Fermi energy:  6.198717;456.000000 electrons
         Band energy:***********;  BLOECHL correction: -0.258920
       DOS:  cpu time    0.0041: real time    0.0041
    CHARGE:  cpu time    0.8108: real time    0.8155
    MIXING:  cpu time    0.0043: real time    0.0044
    --------------------------------------------
      LOOP:  cpu time   14.5416: real time   14.6360

 eigenvalue-minimisations  :  6768
 total energy-change (2. order) :-0.5498327E-03  (-0.1354166E-03)
 number of electron     455.9999874 magnetization       7.9684149
 augmentation part      132.4744912 magnetization       6.0523610

 Broyden mixing:
  rms(total) = 0.31303E-01    rms(broyden)= 0.31301E-01
  rms(prec ) = 0.31566E-01
  weight for this iteration     100.00

 eigenvalues of (default mixing * dielectric matrix)
  average eigenvalue GAMMA=   1.1500
  2.5111  2.1237  2.1237  0.9759  0.9759  0.4892  0.4892  0.6164  0.5972  0.5972

 Free energy of the ion-electron system (eV)
  ---------------------------------------------------
  alpha Z        PSCENC =      1200.06152000
  Ewald energy   TEWEN  =    -30488.81284551
  -Hartree energ DENC   =    -21803.16710411
  -exchange      EXHF   =         0.00000000
  -V(xc)+E(xc)   XCENC  =      1628.83374332
  PAW double counting   =     60644.85952491   -63452.39173132
  entropy T*S    EENTRO =         0.00000000
  eigenvalues    EBANDS =     -4486.70046913
  atomic energy  EATOM  =     56456.63731953
  Solvation  Ediel_sol  =         0.00000000
  ---------------------------------------------------
  free energy    TOTEN  =      -300.68004230 eV

  energy without entropy =     -300.68004230  energy(sigma->0) =     -300.68004230


--------------------------------------------------------------------------------------------------------




--------------------------------------- Iteration      1(  16)  ---------------------------------------


    POTLOK:  cpu time    0.1372: real time    0.1422
    SETDIJ:  cpu time    0.0151: real time    0.0152
     EDDAV:  cpu time   13.4532: real time   13.5366
 BZINTS: Fermi energy:  6.194433;456.000000 electrons
         Band energy:***********;  BLOECHL correction: -0.256555
       DOS:  cpu time    0.0037: real time    0.0037
    CHARGE:  cpu time    0.8104: real time    0.8149
    MIXING:  cpu time    0.0043: real time    0.0043
    --------------------------------------------
      LOOP:  cpu time   14.4239: real time   14.5170

 eigenvalue-minimisations  :  6720
 total energy-change (2. order) : 0.2003936E-02  (-0.5560955E-04)
 number of electron     455.9999874 magnetization       7.9861127
 augmentation part      132.4902156 magnetization       6.0983066

 Broyden mixing:
  rms(total) = 0.83489E-02    rms(broyden)= 0.83447E-02
  rms(prec ) = 0.89733E-02
  weight for this iteration     100.00

 eigenvalues of (default mixing * dielectric matrix)
  average eigenvalue GAMMA=   1.1402
  2.5431  2.0966  2.0966  1.0559  1.0559  0.4892  0.4892  0.8416  0.6813  0.6266
  0.5663

 Free energy of the ion-electron system (eV)
  ---------------------------------------------------
  alpha Z        PSCENC =      1200.06152000
  Ewald energy   TEWEN  =    -30488.81284551
  -Hartree energ DENC   =    -21802.46663588
  -exchange      EXHF   =         0.00000000
  -V(xc)+E(xc)   XCENC  =      1628.83557624
  PAW double counting   =     60662.58824423   -63470.32553571
  entropy T*S    EENTRO =         0.00000000
  eigenvalues    EBANDS =     -4487.19568126
  atomic energy  EATOM  =     56456.63731953
  Solvation  Ediel_sol  =         0.00000000
  ---------------------------------------------------
  free energy    TOTEN  =      -300.67803836 eV

  energy without entropy =     -300.67803836  energy(sigma->0) =     -300.67803836


--------------------------------------------------------------------------------------------------------




--------------------------------------- Iteration      1(  17)  ---------------------------------------


    POTLOK:  cpu time    0.1382: real time    0.1423
    SETDIJ:  cpu time    0.0151: real time    0.0151
     EDDAV:  cpu time   12.0836: real time   12.1679
 BZINTS: Fermi energy:  6.194680;456.000000 electrons
         Band energy:***********;  BLOECHL correction: -0.256335
       DOS:  cpu time    0.0039: real time    0.0039
    CHARGE:  cpu time    0.8100: real time    0.8149
    MIXING:  cpu time    0.0046: real time    0.0046
    --------------------------------------------
      LOOP:  cpu time   13.0554: real time   13.1488

 eigenvalue-minimisations  :  5856
 total energy-change (2. order) : 0.1743484E-03  (-0.1262826E-04)
 number of electron     455.9999874 magnetization       7.9771532
 augmentation part      132.4842044 magnetization       6.0890255

 Broyden mixing:
  rms(total) = 0.52376E-02    rms(broyden)= 0.52373E-02
  rms(prec ) = 0.54783E-02
  weight for this iteration     100.00

 eigenvalues of (default mixing * dielectric matrix)
  average eigenvalue GAMMA=   1.1223
  2.5064  2.0149  2.0149  1.2569  1.2569  0.4892  0.4892  0.8037  0.8037  0.6248
  0.6033  0.6033

 Free energy of the ion-electron system (eV)
  ---------------------------------------------------
  alpha Z        PSCENC =      1200.06152000
  Ewald energy   TEWEN  =    -30488.81284551
  -Hartree energ DENC   =    -21802.64346664
  -exchange      EXHF   =         0.00000000
  -V(xc)+E(xc)   XCENC  =      1628.83761069
  PAW double counting   =     60651.43797033   -63459.09932266
  entropy T*S    EENTRO =         0.00000000
  eigenvalues    EBANDS =     -4487.09664977
  atomic energy  EATOM  =     56456.63731953
  Solvation  Ediel_sol  =         0.00000000
  ---------------------------------------------------
  free energy    TOTEN  =      -300.67786402 eV

  energy without entropy =     -300.67786402  energy(sigma->0) =     -300.67786402


--------------------------------------------------------------------------------------------------------




--------------------------------------- Iteration      1(  18)  ---------------------------------------


    POTLOK:  cpu time    0.1392: real time    0.1421
    SETDIJ:  cpu time    0.0150: real time    0.0150
     EDDAV:  cpu time   11.0379: real time   11.1096
 BZINTS: Fermi energy:  6.195073;456.000000 electrons
         Band energy:***********;  BLOECHL correction: -0.256482
       DOS:  cpu time    0.0039: real time    0.0039
    CHARGE:  cpu time    0.8097: real time    0.8143
    MIXING:  cpu time    0.0049: real time    0.0049
    --------------------------------------------
      LOOP:  cpu time   12.0105: real time   12.0898

 eigenvalue-minimisations  :  5184
 total energy-change (2. order) :-0.1907179E-03  (-0.1899250E-05)
 number of electron     455.9999874 magnetization       7.9683497
 augmentation part      132.4830311 magnetization       6.0773055

 Broyden mixing:
  rms(total) = 0.22692E-02    rms(broyden)= 0.22692E-02
  rms(prec ) = 0.24138E-02
  weight for this iteration     100.00

 eigenvalues of (default mixing * dielectric matrix)
  average eigenvalue GAMMA=   1.1744
  2.5815  2.1721  1.9566  1.9566  1.0611  1.0611  1.0064  0.4892  0.4892  0.6782
  0.6283  0.5932  0.5932

 Free energy of the ion-electron system (eV)
  ---------------------------------------------------
  alpha Z        PSCENC =      1200.06152000
  Ewald energy   TEWEN  =    -30488.81284551
  -Hartree energ DENC   =    -21802.75582479
  -exchange      EXHF   =         0.00000000
  -V(xc)+E(xc)   XCENC  =      1628.83710131
  PAW double counting   =     60647.75651503   -63455.36007265
  entropy T*S    EENTRO =         0.00000000
  eigenvalues    EBANDS =     -4487.04176767
  atomic energy  EATOM  =     56456.63731953
  Solvation  Ediel_sol  =         0.00000000
  ---------------------------------------------------
  free energy    TOTEN  =      -300.67805473 eV

  energy without entropy =     -300.67805473  energy(sigma->0) =     -300.67805473


--------------------------------------------------------------------------------------------------------




--------------------------------------- Iteration      1(  19)  ---------------------------------------


    POTLOK:  cpu time    0.1417: real time    0.1427
    SETDIJ:  cpu time    0.0149: real time    0.0150
     EDDAV:  cpu time   10.0771: real time   10.1415
 BZINTS: Fermi energy:  6.195430;456.000000 electrons
         Band energy:***********;  BLOECHL correction: -0.256601
[...]
   0.123E-12 0.208E-14 0.383E-13   -.133E-13 0.222E-14 0.844E-14   0.156E-19 -.162E-19 0.343E-19   0.185E-13 0.445E-14 -.160E-12
   0.314E-13 0.134E-11 -.417E-14   -.213E-13 0.142E-13 -.249E-13   0.236E-19 0.338E-19 0.500E-20   -.109E-12 0.939E-13 0.189E-12
   -.533E-13 0.111E-11 -.159E-11   -.142E-13 -.844E-14 0.533E-14   -.230E-19 0.322E-20 -.436E-19   -.652E-13 -.129E-12 -.231E-12
   0.146E-13 -.333E-11 0.591E-12   -.231E-13 0.355E-14 0.711E-14   -.605E-20 -.975E-20 0.199E-19   -.649E-13 -.264E-12 0.777E-13
   -.536E-14 0.692E-12 -.502E-12   -.195E-13 -.577E-14 0.444E-14   -.221E-19 -.337E-19 -.234E-21   0.544E-13 0.603E-13 0.201E-12
   0.301E-12 -.166E-11 0.172E-10   -.289E-14 -.604E-13 -.302E-13   -.173E-20 -.356E-18 0.842E-19   -.479E-12 -.139E-11 -.253E-11
   0.120E-10 0.655E-11 0.991E-12   -.142E-13 -.189E-13 -.371E-13   -.833E-19 -.927E-19 -.176E-18   0.985E-12 0.939E-12 -.558E-12
   -.471E-11 -.116E-10 -.162E-10   0.142E-13 0.355E-13 0.711E-13   0.151E-18 0.289E-18 0.247E-18   0.586E-12 0.824E-13 -.195E-12
   -.882E-11 0.182E-10 0.150E-10   0.997E-13 -.666E-13 0.462E-13   -.155E-18 -.427E-19 -.422E-18   -.752E-13 -.317E-12 -.556E-12
   0.286E-11 -.892E-12 0.148E-10   0.546E-13 -.175E-13 0.888E-13   0.346E-19 -.712E-19 -.250E-18   0.561E-12 0.233E-11 0.133E-11
   0.600E-11 -.178E-11 0.175E-10   0.163E-12 0.142E-13 -.711E-14   -.117E-19 0.341E-18 0.259E-18   0.818E-12 0.540E-12 0.805E-12
   -.287E-11 -.152E-10 -.163E-10   0.462E-13 -.175E-13 -.133E-13   -.858E-19 0.470E-19 -.731E-19   0.773E-12 0.127E-12 -.142E-11
   -.111E-10 -.887E-11 -.118E-10   -.850E-13 0.533E-13 -.293E-13   0.308E-18 -.306E-18 0.104E-18   -.561E-12 0.291E-12 -.782E-12
   0.122E-11 -.682E-11 -.111E-10   0.185E-12 0.488E-14 0.888E-14   0.861E-19 -.132E-18 -.128E-18   0.758E-12 -.210E-12 0.421E-12
   0.372E-11 -.665E-11 -.146E-10   -.711E-14 0.128E-12 -.391E-13   -.164E-18 0.154E-18 0.277E-18   0.800E-12 -.785E-12 -.242E-12
   0.645E-12 -.514E-11 0.224E-10   -.150E-12 0.711E-14 -.155E-14   0.243E-18 -.130E-18 0.139E-18   -.215E-12 -.169E-11 -.895E-12
   0.293E-11 -.734E-11 0.202E-10   0.333E-13 0.644E-13 0.888E-14   0.150E-19 -.951E-19 -.413E-18   0.129E-12 0.160E-11 0.210E-11
   0.118E-10 -.145E-10 -.132E-10   -.853E-13 0.249E-13 0.888E-13   0.124E-18 0.656E-20 -.235E-18   0.583E-12 0.191E-11 0.131E-11
   0.580E-11 0.150E-11 -.864E-11   -.355E-13 0.853E-13 -.924E-13   0.123E-18 0.249E-18 0.170E-18   0.612E-12 0.427E-12 0.190E-11
   -.179E-11 0.274E-10 0.242E-10   0.995E-13 0.568E-13 -.338E-13   0.113E-18 -.134E-18 -.500E-19   -.141E-11 0.921E-12 0.121E-11
   0.638E-11 -.390E-10 -.420E-10   0.313E-12 0.586E-13 -.568E-13   -.389E-19 0.146E-19 -.223E-18   -.665E-12 0.363E-12 -.291E-12
   -.188E+03 -.188E+03 0.188E+03   0.188E+03 0.188E+03 -.188E+03   0.792E-01 0.792E-01 -.792E-01   0.110E-03 0.110E-03 -.110E-03
   0.188E+03 -.188E+03 0.188E+03   -.188E+03 0.188E+03 -.188E+03   -.792E-01 0.792E-01 -.792E-01   -.110E-03 0.110E-03 -.110E-03
   0.188E+03 -.188E+03 -.188E+03   -.188E+03 0.188E+03 0.188E+03   -.792E-01 0.792E-01 0.792E-01   -.110E-03 0.110E-03 0.110E-03
   -.188E+03 -.188E+03 -.188E+03   0.188E+03 0.188E+03 0.188E+03   0.792E-01 0.792E-01 0.792E-01   0.110E-03 0.110E-03 0.110E-03
   -.188E+03 0.188E+03 -.188E+03   0.188E+03 -.188E+03 0.188E+03   0.792E-01 -.792E-01 0.792E-01   0.110E-03 -.110E-03 0.110E-03
   0.188E+03 0.188E+03 -.188E+03   -.188E+03 -.188E+03 0.188E+03   -.792E-01 -.792E-01 0.792E-01   -.110E-03 -.110E-03 0.110E-03
   0.188E+03 0.188E+03 0.188E+03   -.188E+03 -.188E+03 -.188E+03   -.792E-01 -.792E-01 -.792E-01   -.110E-03 -.110E-03 -.110E-03
   -.188E+03 0.188E+03 0.188E+03   0.188E+03 -.188E+03 -.188E+03   0.792E-01 -.792E-01 -.792E-01   0.110E-03 -.110E-03 -.110E-03
   -.188E+03 -.188E+03 0.188E+03   0.188E+03 0.188E+03 -.188E+03   0.792E-01 0.792E-01 -.792E-01   0.110E-03 0.110E-03 -.110E-03
   -.188E+03 -.188E+03 -.188E+03   0.188E+03 0.188E+03 0.188E+03   0.792E-01 0.792E-01 0.792E-01   0.110E-03 0.110E-03 0.110E-03
   -.188E+03 0.188E+03 -.188E+03   0.188E+03 -.188E+03 0.188E+03   0.792E-01 -.792E-01 0.792E-01   0.110E-03 -.110E-03 0.110E-03
   -.188E+03 0.188E+03 0.188E+03   0.188E+03 -.188E+03 -.188E+03   0.792E-01 -.792E-01 -.792E-01   0.110E-03 -.110E-03 -.110E-03
   0.188E+03 0.188E+03 0.188E+03   -.188E+03 -.188E+03 -.188E+03   -.792E-01 -.792E-01 -.792E-01   -.110E-03 -.110E-03 -.110E-03
   0.188E+03 0.188E+03 -.188E+03   -.188E+03 -.188E+03 0.188E+03   -.792E-01 -.792E-01 0.792E-01   -.110E-03 -.110E-03 0.110E-03
   0.188E+03 -.188E+03 -.188E+03   -.188E+03 0.188E+03 0.188E+03   -.792E-01 0.792E-01 0.792E-01   -.110E-03 0.110E-03 0.110E-03
   0.188E+03 -.188E+03 0.188E+03   -.188E+03 0.188E+03 -.188E+03   -.792E-01 0.792E-01 -.792E-01   -.110E-03 0.110E-03 -.110E-03
   -.188E+03 -.188E+03 0.188E+03   0.188E+03 0.188E+03 -.188E+03   0.792E-01 0.792E-01 -.792E-01   0.110E-03 0.110E-03 -.110E-03
   -.188E+03 0.188E+03 0.188E+03   0.188E+03 -.188E+03 -.188E+03   0.792E-01 -.792E-01 -.792E-01   0.110E-03 -.110E-03 -.110E-03
   0.188E+03 0.188E+03 0.188E+03   -.188E+03 -.188E+03 -.188E+03   -.792E-01 -.792E-01 -.792E-01   -.110E-03 -.110E-03 -.110E-03
   0.188E+03 -.188E+03 0.188E+03   -.188E+03 0.188E+03 -.188E+03   -.792E-01 0.792E-01 -.792E-01   -.110E-03 0.110E-03 -.110E-03
   0.188E+03 -.188E+03 -.188E+03   -.188E+03 0.188E+03 0.188E+03   -.792E-01 0.792E-01 0.792E-01   -.110E-03 0.110E-03 0.110E-03
   0.188E+03 0.188E+03 -.188E+03   -.188E+03 -.188E+03 0.188E+03   -.792E-01 -.792E-01 0.792E-01   -.110E-03 -.110E-03 0.110E-03
   -.188E+03 0.188E+03 -.188E+03   0.188E+03 -.188E+03 0.188E+03   0.792E-01 -.792E-01 0.792E-01   0.110E-03 -.110E-03 0.110E-03
   -.188E+03 -.188E+03 -.188E+03   0.188E+03 0.188E+03 0.188E+03   0.792E-01 0.792E-01 0.792E-01   0.110E-03 0.110E-03 0.110E-03
   -.188E+03 -.188E+03 0.188E+03   0.188E+03 0.188E+03 -.188E+03   0.792E-01 0.792E-01 -.792E-01   0.110E-03 0.110E-03 -.110E-03
   0.188E+03 -.188E+03 -.188E+03   -.188E+03 0.188E+03 0.188E+03   -.792E-01 0.792E-01 0.792E-01   -.110E-03 0.110E-03 0.110E-03
   -.188E+03 0.188E+03 -.188E+03   0.188E+03 -.188E+03 0.188E+03   0.792E-01 -.792E-01 0.792E-01   0.110E-03 -.110E-03 0.110E-03
   0.188E+03 0.188E+03 0.188E+03   -.188E+03 -.188E+03 -.188E+03   -.792E-01 -.792E-01 -.792E-01   -.110E-03 -.110E-03 -.110E-03
   -.188E+03 -.188E+03 -.188E+03   0.188E+03 0.188E+03 0.188E+03   0.792E-01 0.792E-01 0.792E-01   0.110E-03 0.110E-03 0.110E-03
   -.188E+03 0.188E+03 0.188E+03   0.188E+03 -.188E+03 -.188E+03   0.792E-01 -.792E-01 -.792E-01   0.110E-03 -.110E-03 -.110E-03
   0.188E+03 0.188E+03 -.188E+03   -.188E+03 -.188E+03 0.188E+03   -.792E-01 -.792E-01 0.792E-01   -.110E-03 -.110E-03 0.110E-03
   0.188E+03 -.188E+03 0.188E+03   -.188E+03 0.188E+03 -.188E+03   -.792E-01 0.792E-01 -.792E-01   -.110E-03 0.110E-03 -.110E-03
 -----------------------------------------------------------------------------------------------
   0.206E-10 -.648E-10 -.850E-11   -.625E-12 0.568E-12 -.853E-13   -.139E-16 0.139E-15 0.971E-16   0.352E-11 0.548E-11 0.166E-11
 
 
 POSITION                                       TOTAL-FORCE (eV/Angst)
 -----------------------------------------------------------------------------------
     -0.00000     -0.00000     -0.00000        -0.000000     -0.000000     -0.000000
      2.40068      7.20204      7.20204        -0.000000     -0.000000     -0.000000
      4.80136     -0.00000      4.80136        -0.000000     -0.000000     -0.000000
     -0.00000      4.80136      4.80136        -0.000000     -0.000000     -0.000000
      4.80136      4.80136     -0.00000        -0.000000     -0.000000     -0.000000
      7.20204      2.40068      7.20204        -0.000000     -0.000000     -0.000000
      7.20204      7.20204      2.40068        -0.000000     -0.000000     -0.000000
      2.40068      2.40068      2.40068        -0.000000     -0.000000     -0.000000
      1.20034      1.20034      6.00170        -0.000000     -0.000000     -0.000000
      8.40238      8.40238      6.00170        -0.000000     -0.000000     -0.000000
      3.60102      1.20034      8.40238        -0.000000     -0.000000     -0.000000
      6.00170      8.40238      8.40238        -0.000000     -0.000000     -0.000000
      1.20034      3.60102      8.40238        -0.000000     -0.000000     -0.000000
      8.40238      6.00170      8.40238        -0.000000     -0.000000     -0.000000
      3.60102      3.60102      6.00170        -0.000000     -0.000000     -0.000000
      6.00170      6.00170      6.00170        -0.000000     -0.000000     -0.000000
      3.60102      8.40238      1.20034        -0.000000     -0.000000     -0.000000
      3.60102      6.00170      3.60102        -0.000000     -0.000000     -0.000000
      1.20034      6.00170      1.20034        -0.000000     -0.000000     -0.000000
      1.20034      8.40238      3.60102        -0.000000     -0.000000     -0.000000
      8.40238      3.60102      1.20034        -0.000000     -0.000000     -0.000000
      8.40238      1.20034      3.60102        -0.000000     -0.000000     -0.000000
      6.00170      1.20034      1.20034        -0.000000     -0.000000     -0.000000
      6.00170      3.60102      3.60102        -0.000000     -0.000000     -0.000000
      1.07065      1.07065      3.73071         0.003508      0.003508     -0.003508
      6.13139      8.27270      6.13139        -0.003508      0.003508     -0.003508
      3.73071      1.07065      1.07065        -0.003508      0.003508      0.003508
      8.27270      8.27270      8.27270         0.003508      0.003508      0.003508
      1.07065      3.73071      1.07065         0.003508     -0.003508      0.003508
      6.13139      6.13139      8.27270        -0.003508     -0.003508      0.003508
      3.73071      3.73071      3.73071        -0.003508     -0.003508     -0.003508
      8.27270      6.13139      6.13139         0.003508     -0.003508     -0.003508
      1.07065      5.87201      8.53207         0.003508      0.003508     -0.003508
      3.47133      8.27270      3.47133         0.003508      0.003508      0.003508
      1.07065      8.53207      5.87201         0.003508     -0.003508      0.003508
      3.47133      6.13139      1.33003         0.003508     -0.003508     -0.003508
      3.73071      8.53207      8.53207        -0.003508     -0.003508     -0.003508
      1.33003      6.13139      3.47133        -0.003508     -0.003508      0.003508
      3.73071      5.87201      5.87201        -0.003508      0.003508      0.003508
      1.33003      8.27270      1.33003        -0.003508      0.003508     -0.003508
      5.87201      1.07065      8.53207         0.003508      0.003508     -0.003508
      3.47133      1.33003      6.13139         0.003508     -0.003508     -0.003508
      8.53207      3.73071      8.53207        -0.003508     -0.003508     -0.003508
      1.33003      3.47133      6.13139        -0.003508      0.003508     -0.003508
      8.53207      1.07065      5.87201        -0.003508      0.003508      0.003508
      1.33003      1.33003      8.27270        -0.003508     -0.003508      0.003508
      5.87201      3.73071      5.87201         0.003508     -0.003508      0.003508
      3.47133      3.47133      8.27270         0.003508      0.003508      0.003508
      5.87201      5.87201      3.73071         0.003508      0.003508     -0.003508
      8.53207      5.87201      1.07065        -0.003508      0.003508      0.003508
      5.87201      8.53207      1.07065         0.003508     -0.003508      0.003508
      8.53207      8.53207      3.73071        -0.003508     -0.003508     -0.003508
      8.27270      3.47133      3.47133         0.003508      0.003508      0.003508
      8.27270      1.33003      1.33003         0.003508     -0.003508     -0.003508
      6.13139      1.33003      3.47133        -0.003508     -0.003508      0.003508
      6.13139      3.47133      1.33003        -0.003508      0.003508     -0.003508
 -----------------------------------------------------------------------------------
    total drift:                                0.000000     -0.000000     -0.000000


--------------------------------------------------------------------------------------------------------



  FREE ENERGIE OF THE ION-ELECTRON SYSTEM (eV)
  ---------------------------------------------------
  free  energy   TOTEN  =      -305.31154802 eV

  energy  without entropy=     -305.31154802  energy(sigma->0) =     -305.31154802
 
 d Force = 0.4161838E-03[-0.294E-03, 0.113E-02]  d Energy =-0.2080527E-03 0.624E-03
 d Force =-0.1572697E+02[-0.157E+02,-0.157E+02]  d Ewald  =-0.3541172E+01-0.122E+02


--------------------------------------------------------------------------------------------------------


    POTLOK:  cpu time    0.1495: real time    0.1503


--------------------------------------------------------------------------------------------------------


 Conjugate gradient step on ions:
 trial-energy change:    0.000208  1 .order   -0.000705   -0.001943    0.000532
  (g-gl).g = 0.101E-01      g.g   = 0.200E-02  gl.gl    = 0.501E+00
 g(Force)  = 0.834E-03   g(Stress)= 0.116E-02 ortho     =-0.505E-04
 gamma     =   0.02017
 trial     =   0.97282
 opt step  =   0.76364  (harmonic =   0.76364) maximal distance =0.00068674
 next E    =  -305.312518   (d E  =  -0.00076)


--------------------------------------------------------------------------------------------------------


  
 reached required accuracy - stopping structural energy minimisation
     LOOP+:  cpu time  120.7725: real time  121.5585
    4ORBIT:  cpu time    0.0000: real time    0.0000
 


 total charge     
 
# of ion       s       p       d       tot
------------------------------------------
    1        0.384   0.362   0.000   0.747
    2        0.385   0.362   0.000   0.747
    3        0.385   0.362   0.000   0.747
    4        0.385   0.362   0.000   0.747
    5        0.385   0.362   0.000   0.747
    6        0.385   0.362   0.000   0.747
    7        0.385   0.362   0.000   0.747
    8        0.385   0.362   0.000   0.747
    9        0.410   6.508   7.424  14.342
   10        0.410   6.508   7.422  14.340
   11        0.410   6.508   7.424  14.342
   12        0.410   6.508   7.422  14.341
   13        0.410   6.508   7.421  14.340
   14        0.410   6.508   7.421  14.340
   15        0.410   6.508   7.424  14.342
   16        0.410   6.508   7.425  14.344
   17        0.410   6.508   7.422  14.340
   18        0.410   6.508   7.425  14.343
   19        0.410   6.508   7.424  14.342
   20        0.410   6.508   7.424  14.342
   21        0.410   6.508   7.423  14.341
   22        0.410   6.508   7.423  14.341
   23        0.410   6.508   7.421  14.339
   24        0.410   6.508   7.424  14.342
   25        1.329   2.382   0.000   3.711
   26        1.329   2.382   0.000   3.711
   27        1.329   2.382   0.000   3.711
   28        1.329   2.382   0.000   3.710
   29        1.329   2.382   0.000   3.711
   30        1.329   2.382   0.000   3.711
   31        1.329   2.382   0.000   3.711
   32        1.329   2.382   0.000   3.711
   33        1.329   2.382   0.000   3.711
   34        1.329   2.382   0.000   3.711
   35        1.329   2.382   0.000   3.711
   36        1.329   2.382   0.000   3.711
   37        1.329   2.382   0.000   3.711
   38        1.329   2.382   0.000   3.711
   39        1.329   2.382   0.000   3.711
   40        1.329   2.382   0.000   3.710
   41        1.329   2.382   0.000   3.710
   42        1.329   2.382   0.000   3.711
   43        1.329   2.382   0.000   3.710
   44        1.329   2.382   0.000   3.711
   45        1.329   2.382   0.000   3.711
   46        1.329   2.382   0.000   3.710
   47        1.329   2.382   0.000   3.711
   48        1.329   2.382   0.000   3.711
   49        1.329   2.382   0.000   3.711
   50        1.329   2.382   0.000   3.710
   51        1.329   2.382   0.000   3.711
   52        1.329   2.382   0.000   3.711
   53        1.329   2.382   0.000   3.711
   54        1.329   2.382   0.000   3.710
   55        1.329   2.382   0.000   3.711
   56        1.329   2.382   0.000   3.711
--------------------------------------------------
tot         52.169 183.242 118.769 354.180
 


 magnetization (x)
 
# of ion       s       p       d       tot
------------------------------------------
    1        0.000   0.000   0.000   0.000
    2        0.000  -0.000   0.000  -0.000
    3       -0.000   0.000   0.000  -0.000
    4        0.000   0.000   0.000   0.000
    5       -0.000   0.000   0.000  -0.000
    6        0.000   0.000   0.000   0.000
    7        0.000   0.000   0.000   0.000
    8        0.000   0.000   0.000   0.000
    9        0.000   0.000  -0.001  -0.001
   10        0.000   0.000  -0.001  -0.001
   11        0.000   0.000   0.001   0.001
   12       -0.000   0.000   0.001   0.001
   13       -0.000   0.000   0.002   0.002
   14        0.000   0.000   0.001   0.001
   15       -0.000  -0.000   0.001   0.001
   16       -0.000  -0.000  -0.000  -0.000
   17       -0.000   0.000  -0.000  -0.000
   18        0.000   0.000   0.001   0.001
   19        0.000   0.000  -0.001  -0.001
   20        0.000   0.000   0.003   0.003
   21        0.000   0.000   0.000   0.000
   22       -0.000   0.000   0.005   0.005
   23        0.000  -0.000  -0.000  -0.000
   24        0.000   0.000   0.000   0.000
   25       -0.000  -0.000   0.000  -0.000
   26       -0.000   0.000   0.000  -0.000
   27        0.000   0.000   0.000   0.000
   28        0.000  -0.000   0.000   0.000
   29       -0.000  -0.000   0.000  -0.000
   30       -0.000  -0.000   0.000  -0.000
   31        0.000   0.000   0.000   0.000
   32        0.000  -0.000   0.000   0.000
   33       -0.000  -0.000   0.000  -0.000
   34       -0.000   0.000   0.000   0.000
   35        0.000   0.000   0.000   0.000
   36       -0.000   0.000   0.000  -0.000
   37       -0.000  -0.000   0.000  -0.000
   38        0.000  -0.000   0.000   0.000
   39       -0.000  -0.000   0.000  -0.000
   40        0.000  -0.000   0.000   0.000
   41        0.000  -0.000   0.000   0.000
   42       -0.000   0.000   0.000   0.000
   43        0.000  -0.000   0.000   0.000
   44       -0.000  -0.000   0.000  -0.000
   45        0.000   0.000   0.000   0.000
   46        0.000  -0.000   0.000   0.000
   47        0.000  -0.000   0.000   0.000
   48       -0.000   0.000   0.000  -0.000
   49        0.000  -0.000   0.000   0.000
   50        0.000  -0.000   0.000   0.000
   51       -0.000  -0.000   0.000  -0.000
   52        0.000  -0.000   0.000  -0.000
   53        0.000  -0.000   0.000   0.000
   54       -0.000  -0.000   0.000  -0.000
   55       -0.000   0.000   0.000  -0.000
   56       -0.000   0.000   0.000   0.000
--------------------------------------------------
tot          0.001  -0.000   0.012   0.012
 
 BZINTS: Fermi energy:  7.300378;456.000000 electrons
         Band energy:***********;  BLOECHL correction: -0.695245

 total amount of memory used by VASP MPI-rank0   139826. kBytes
=======================================================================

   base      :      30000. kBytes
   nonlr-proj:      28988. kBytes
   fftplans  :       5433. kBytes
   grid      :      50268. kBytes
   one-center:       1741. kBytes
   wavefun   :      23396. kBytes
 
  
  
 General timing and accounting informations for this job:
 ========================================================
  
                  Total CPU time used (sec):     1648.803
                            User time (sec):     1646.954
                          System time (sec):        1.849
                         Elapsed time (sec):     1660.056
  
                   Maximum memory used (kb):      381424.
                   Average memory used (kb):           0.
  
                          Minor page faults:       392762
                          Major page faults:           93
                 Voluntary context switches:        19077
