
     Program PWSCF v.5.1rc2 (svn rev. 11289) starts on  4Mar2018 at 23:15:14 

     This program is part of the open-source Quantum ESPRESSO suite
     for quantum simulation of materials; please cite
         "P. Giannozzi et al., J. Phys.:Condens. Matter 21 395502 (2009);
          URL http://www.quantum-espresso.org", 
     in publications or presentations arising from this work. More details at
     http://www.quantum-espresso.org/quote

     Parallel version (MPI), running on     8 processors
     R & G space division:  proc/nbgrp/npool/nimage =       8
     Reading input from pw.inp
     Message from routine read_cards :
     DEPRECATED: no units specified in CELL_PARAMETERS card

     Current dimensions of program PWSCF are:
     Max number of different atomic species (ntypx) = 10
     Max number of k-points (npk) =  40000
     Max angular momentum in pseudopotentials (lmaxx) =  3
     Presently no symmetry can be used with electric field


     **************************************************************************
     Initializing libbeef V0.1.1 with the BEEF-vdW functional.
     Citation: Wellendorff et al., PRB 85, 235149 (2012).
     **************************************************************************


     IMPORTANT: XC functional enforced from input :
     Exchange-correlation      = BEEF ( 1  4 27 13 2)
     Any further DFT definition will be discarded
     Please, verify this is what you really want

               file Cu.UPF: wavefunction(s)  3D renormalized

     Subspace diagonalization in iterative solution of the eigenvalue problem:
     a serial algorithm will be used

 
     Parallelization info
     --------------------
     sticks:   dense  smooth     PW     G-vecs:    dense   smooth      PW
     Min         648     261     72               142416    36039    5292
     Max         649     262     73               142425    36072    5303
     Sum        5191    2091    583              1139367   288467   42387
 


     bravais-lattice index     =            0
     lattice parameter (alat)  =       1.8897  a.u.
     unit-cell volume          =    9578.9423 (a.u.)^3
     number of atoms/cell      =           41
     number of atomic types    =            5
     number of electrons       =       410.00
     number of Kohn-Sham states=          215
     kinetic-energy cutoff     =      36.7493  Ry
     charge density cutoff     =     367.4932  Ry
     convergence threshold     =      7.3E-06
     mixing beta               =       0.1000
     number of iterations used =           10  local-TF  mixing
     Exchange-correlation      = BEEF ( 1  4 27 13 2)
     nstep                     =           50


     celldm(1)=   1.889726  celldm(2)=   0.000000  celldm(3)=   0.000000
     celldm(4)=   0.000000  celldm(5)=   0.000000  celldm(6)=   0.000000

     crystal axes: (cart. coord. in units of alat)
               a(1) = (   7.806467   0.000000   0.000000 )  
               a(2) = (   0.000000   6.373953   0.000000 )  
               a(3) = (   0.000000   0.000000  28.527096 )  

     reciprocal axes: (cart. coord. in units 2 pi/alat)
               b(1) = (  0.128099  0.000000  0.000000 )  
               b(2) = (  0.000000  0.156889  0.000000 )  
               b(3) = (  0.000000  0.000000  0.035054 )  


     PseudoPot. # 1 for Zn read from file:
     /nfs/slac/g/suncatfs/sw/external/esp-psp/v2/Zn.UPF
     MD5 check sum: 8a117cd81793830d6ad9bd6443d05479
     Pseudo is Ultrasoft, Zval = 12.0
     Generated by new atomic code, or converted to UPF format
     Using radial grid of  869 points,  6 beta functions with: 
                l(1) =   0
                l(2) =   0
                l(3) =   1
                l(4) =   1
                l(5) =   2
                l(6) =   2
     Q(r) pseudized with  8 coefficients,  rinner =    0.800   0.800   0.800
                                                       0.800   0.800

     PseudoPot. # 2 for Cu read from file:
     /nfs/slac/g/suncatfs/sw/external/esp-psp/v2/Cu.UPF
     MD5 check sum: 1265fa589247fc99ea3a830f142ff47f
     Pseudo is Ultrasoft + core correction, Zval = 11.0
     Generated using "atomic" code by A. Dal Corso  v.5.0.2 svn rev. 9415
     Using radial grid of 1199 points,  6 beta functions with: 
                l(1) =   0
                l(2) =   0
                l(3) =   1
                l(4) =   1
                l(5) =   2
                l(6) =   2
     Q(r) pseudized with 0 coefficients 


     PseudoPot. # 3 for  O read from file:
     /nfs/slac/g/suncatfs/sw/external/esp-psp/v2/O.UPF
     MD5 check sum: e057bbcf3229fb5d8c36c0c92f9568b4
     Pseudo is Ultrasoft + core correction, Zval =  6.0
     Generated using "atomic" code by A. Dal Corso  v.5.0.2 svn rev. 9415
     Using radial grid of 1095 points,  4 beta functions with: 
                l(1) =   0
                l(2) =   0
                l(3) =   1
                l(4) =   1
     Q(r) pseudized with 0 coefficients 


     PseudoPot. # 4 for  C read from file:
     /nfs/slac/g/suncatfs/sw/external/esp-psp/v2/C.UPF
     MD5 check sum: ab446d787031eba755f1d5ee46644bb0
     Pseudo is Ultrasoft + core correction, Zval =  4.0
     Generated using "atomic" code by A. Dal Corso  v.5.0.2 svn rev. 9415
     Using radial grid of 1073 points,  4 beta functions with: 
                l(1) =   0
                l(2) =   0
                l(3) =   1
                l(4) =   1
     Q(r) pseudized with 0 coefficients 


     PseudoPot. # 5 for  H read from file:
     /nfs/slac/g/suncatfs/sw/external/esp-psp/v2/H.UPF
     MD5 check sum: bd57da0722753ddfd9833a65b40bb853
     Pseudo is Ultrasoft, Zval =  1.0
     Generated using "atomic" code by A. Dal Corso  v.5.0.2 svn rev. 9415
     Using radial grid of  929 points,  2 beta functions with: 
                l(1) =   0
                l(2) =   0
     Q(r) pseudized with 0 coefficients 


     vdW kernel table read from file vdW_kernel_table
     MD5 check sum: 095c7af220d748ca6e76c0b4c6cfb241

     atomic species   valence    mass     pseudopotential
        Zn1           12.00    65.39000     Zn( 1.00)
        Cu1           11.00    63.54600     Cu( 1.00)
        O1             6.00    15.99940      O( 1.00)
        C1             4.00    12.01100      C( 1.00)
        H1             1.00     1.00794      H( 1.00)

     No symmetry found



   Cartesian axes

     site n.     atom                  positions (alat units)
         1           Zn1 tau(   1) = (   0.4925935   1.2086278  17.9411110  )
         2           Cu1 tau(   2) = (   3.3817651   1.1137152  17.7243124  )
         3           Cu1 tau(   3) = (   5.8683462   1.0870481  17.7446915  )
         4           Cu1 tau(   4) = (   1.9602112   5.3224321  17.0775013  )
         5           Cu1 tau(   5) = (   4.5909819   5.3515910  16.9622228  )
         6           Cu1 tau(   6) = (   7.1569609   5.3334418  16.9509359  )
         7           Cu1 tau(   7) = (   0.6737839   3.2610783  16.2766075  )
         8           Cu1 tau(   8) = (   3.2742911   3.2566316  16.2906088  )
         9           Cu1 tau(   9) = (   5.8591198   3.2467220  16.3014180  )
        10           Cu1 tau(  10) = (   1.9547054   1.1445425  15.5427537  )
        11           Cu1 tau(  11) = (   4.5770377   1.1458226  15.5406849  )
        12           Cu1 tau(  12) = (   7.1933644   1.1488387  15.5408269  )
        13           Cu1 tau(  13) = (   0.6779236   5.3697795  14.7854569  )
        14           Cu1 tau(  14) = (   3.2496602   5.3660054  14.7877063  )
        15           Cu1 tau(  15) = (   5.8673952   5.3667290  14.7579283  )
        16           Cu1 tau(  16) = (   1.9635315   3.2311369  14.0175961  )
        17           Cu1 tau(  17) = (   4.5618981   3.2341678  14.0177268  )
        18           Cu1 tau(  18) = (   7.1570410   3.2349813  14.0175476  )
        19           Cu1 tau(  19) = (   0.6505353   1.0963948  13.2895739  )
        20           Cu1 tau(  20) = (   3.2526883   1.0963948  13.2895739  )
        21           Cu1 tau(  21) = (   5.8548490   1.0963948  13.2895739  )
        22           Cu1 tau(  22) = (   1.9516079   5.3456991  12.5384024  )
        23           Cu1 tau(  23) = (   4.5537687   5.3456991  12.5384024  )
        24           Cu1 tau(  24) = (   7.1559216   5.3456991  12.5384024  )
        25           Cu1 tau(  25) = (   0.6505353   3.2210437  11.7872121  )
        26           Cu1 tau(  26) = (   3.2526883   3.2210437  11.7872121  )
        27           Cu1 tau(  27) = (   5.8548490   3.2210437  11.7872121  )
        28           Cu1 tau(  28) = (   1.9516079   1.0963948  11.0360406  )
        29           Cu1 tau(  29) = (   4.5537687   1.0963948  11.0360406  )
        30           Cu1 tau(  30) = (   7.1559216   1.0963948  11.0360406  )
        31           Cu1 tau(  31) = (   0.6505353   5.3456991  10.2848690  )
        32           Cu1 tau(  32) = (   3.2526883   5.3456991  10.2848690  )
        33           Cu1 tau(  33) = (   5.8548490   5.3456991  10.2848690  )
        34           Cu1 tau(  34) = (   1.9516079   3.2210437   9.5336788  )
        35           Cu1 tau(  35) = (   4.5537687   3.2210437   9.5336788  )
        36           Cu1 tau(  36) = (   7.1559216   3.2210437   9.5336788  )
        37           O1  tau(  37) = (   1.9930740   0.6246022  18.8021168  )
        38           C1  tau(  38) = (   5.1798069   1.1052351  19.9691344  )
        39           H1  tau(  39) = (   5.1910903   2.0841585  20.4413586  )
        40           H1  tau(  40) = (   4.2641334   0.5832680  20.2583743  )
        41           H1  tau(  41) = (   6.0084006   0.5145443  20.3489341  )

     number of k points=    10  Marzari-Vanderbilt smearing, width (Ry)=  0.0073
                       cart. coord. in units 2pi/alat
        k(    1) = (   0.0000000   0.0000000   0.0000000), wk =   0.1250000
        k(    2) = (   0.0000000   0.0392221   0.0000000), wk =   0.2500000
        k(    3) = (   0.0000000  -0.0784443   0.0000000), wk =   0.1250000
        k(    4) = (   0.0320247   0.0000000   0.0000000), wk =   0.2500000
        k(    5) = (   0.0320247   0.0392221   0.0000000), wk =   0.2500000
        k(    6) = (   0.0320247  -0.0784443   0.0000000), wk =   0.2500000
        k(    7) = (   0.0320247  -0.0392221   0.0000000), wk =   0.2500000
        k(    8) = (  -0.0640495   0.0000000   0.0000000), wk =   0.1250000
        k(    9) = (  -0.0640495   0.0392221   0.0000000), wk =   0.2500000
        k(   10) = (  -0.0640495  -0.0784443   0.0000000), wk =   0.1250000

     Dense  grid:  1139367 G-vectors     FFT dimensions: (  96,  75, 360)

     Smooth grid:   288467 G-vectors     FFT dimensions: (  60,  48, 216)

     Largest allocated arrays     est. size (Mb)     dimensions
        Kohn-Sham Wavefunctions        14.97 Mb     (    4562,  215)
        NL pseudopotentials            46.64 Mb     (    4562,  670)
        Each V/rho on FFT grid          4.94 Mb     (  324000)
        Each G-vector array             1.09 Mb     (  142423)
        G-vector shells                 0.43 Mb     (   56912)
     Largest temporary arrays     est. size (Mb)     dimensions
        Auxiliary wavefunctions        59.87 Mb     (    4562,  860)
        Each subspace H/S matrix       11.29 Mb     (     860,  860)
        Each <psi_i|beta_j> matrix      2.20 Mb     (     670,  215)
        Arrays for rho mixing          49.44 Mb     (  324000,   10)

     Check: negative/imaginary core charge=   -0.000012    0.000000

     Initial potential from superposition of free atoms
     Check: negative starting charge=   -0.003170

     starting charge  409.99168, renormalised to  410.00000

     negative rho (up, down):  3.170E-03 0.000E+00


     ************************************************************************
     *
     * You are using vdW-DF for exchange-correlation in this calculation.
     * Please cite the following three references that made this development
     * possible:
     *
     *   M. Dion, H. Rydberg, E. Schroder, D. C. Langreth, and
     *   B. I. Lundqvist, Phys. Rev. Lett. 92, 246401 (2004).
     *
     *   T. Thonhauser, V. R. Cooper, S. Li, A. Puzder, P. Hyldgaard, and
     *   D. C. Langreth, Phys. Rev. B 76, 125112 (2007).
     *
     *   G. Roman-Perez and J. M. Soler, Phys. Rev. Lett. 103, 096102 (2009).
     *
     *
     * If you are using vdW-DF2, please also cite:
     *
     *   K. Lee, E. D. Murray, L. Kong, B. I. Lundqvist, and
     *   D. C. Langreth, Phys. Rev. B 82, 081101(R) (2010).
     *
     *
     * If you are calculating the stress with vdW-DF, please also cite:
     *
     *   R. Sabatini, E. Kucukbenli, B. Kolb, T. Thonhauser, and
     *   S. de Gironcoli, J. Phys.: Condens. Matter 24, 424209 (2012).
     *
     ************************************************************************

     Carrying out vdW-DF run using the following parameters:

     Nqs =      20    Nr_points =    1024   r_max =   100.000
     q_mesh =
               0.00001000     0.04494208     0.09755937     0.15916263
               0.23128650     0.31572767     0.41458969     0.53033537
               0.66584808     0.82450364     1.01025438     1.22772762
               1.48234092     1.78043706     2.12944203     2.53805004
               3.01644009     3.57652955     4.23227104     5.00000000

     Gradients computed in reciprocal space

     ************************************************************************


 
     Adding external electric field

     Computed dipole along edir(3) : 
        Dipole               -0.0029 Ry au,         -0.0073 Debye
        Dipole field         -0.0000 Ry au
 
        Potential amp.        0.0004 Ry
        Total length         52.5607 bohr
 
     Starting wfc are  332 randomized atomic wfcs

     total cpu time spent up to now is       98.8 secs

     per-process dynamical memory:   353.7 Mb

     Self-consistent Calculation

     iteration #  1     ecut=    36.75 Ry     beta=0.10
     Davidson diagonalization with overlap
     ethr =  1.00E-02,  avg # of iterations =  3.0

     Threshold (ethr) on eigenvalues was too large:
     Diagonalizing with lowered threshold

     Davidson diagonalization with overlap
     ethr =  7.25E-04,  avg # of iterations =  3.0

     negative rho (up, down):  1.638E-03 0.000E+00
 
     Adding external electric field

     Computed dipole along edir(3) : 
        Dipole               -0.0150 Ry au,         -0.0380 Debye
        Dipole field         -0.0000 Ry au
 
        Potential amp.        0.0021 Ry
        Total length         52.5607 bohr
 

     total cpu time spent up to now is      405.0 secs

     total energy              =   -4330.48591218 Ry
     Harris-Foulkes estimate   =   -4330.60742202 Ry
     estimated scf accuracy    <       3.02981351 Ry

     iteration #  2     ecut=    36.75 Ry     beta=0.10
     Davidson diagonalization with overlap
     ethr =  7.39E-04,  avg # of iterations =  1.0

     negative rho (up, down):  2.205E-04 0.000E+00
 
     Adding external electric field

     Computed dipole along edir(3) : 
        Dipole               -0.1390 Ry au,         -0.3534 Debye
        Dipole field         -0.0002 Ry au
 
        Potential amp.        0.0192 Ry
        Total length         52.5607 bohr
 

     total cpu time spent up to now is      564.2 secs

     total energy              =   -4329.62698996 Ry
     Harris-Foulkes estimate   =   -4330.51307463 Ry
     estimated scf accuracy    <       2.64056796 Ry

     iteration #  3     ecut=    36.75 Ry     beta=0.10
     Davidson diagonalization with overlap
     ethr =  6.44E-04,  avg # of iterations =  4.0

     negative rho (up, down):  2.008E-04 0.000E+00
 
     Adding external electric field

     Computed dipole along edir(3) : 
        Dipole               -0.1062 Ry au,         -0.2699 Debye
        Dipole field         -0.0001 Ry au
 
        Potential amp.        0.0146 Ry
        Total length         52.5607 bohr
 

     total cpu time spent up to now is      747.7 secs

     total energy              =   -4330.00797065 Ry
     Harris-Foulkes estimate   =   -4330.22865179 Ry
     estimated scf accuracy    <       3.52447281 Ry

     iteration #  4     ecut=    36.75 Ry     beta=0.10
     Davidson diagonalization with overlap
     ethr =  6.44E-04,  avg # of iterations =  2.0

     negative rho (up, down):  1.257E-04 0.000E+00
 
     Adding external electric field

     Computed dipole along edir(3) : 
        Dipole               -0.0996 Ry au,         -0.2533 Debye
        Dipole field         -0.0001 Ry au
 
        Potential amp.        0.0137 Ry
        Total length         52.5607 bohr
 

     total cpu time spent up to now is      914.3 secs

     total energy              =   -4330.07698717 Ry
     Harris-Foulkes estimate   =   -4330.10958387 Ry
     estimated scf accuracy    <       0.58857294 Ry

     iteration #  5     ecut=    36.75 Ry     beta=0.10
     Davidson diagonalization with overlap
     ethr =  1.44E-04,  avg # of iterations =  3.9

     negative rho (up, down):  2.593E-05 0.000E+00
 
     Adding external electric field

     Computed dipole along edir(3) : 
        Dipole               -0.2369 Ry au,         -0.6022 Debye
        Dipole field         -0.0003 Ry au
 
        Potential amp.        0.0327 Ry
        Total length         52.5607 bohr
 

     total cpu time spent up to now is     1099.7 secs

     total energy              =   -4329.97224951 Ry
     Harris-Foulkes estimate   =   -4330.15915261 Ry
     estimated scf accuracy    <       0.70391446 Ry

     iteration #  6     ecut=    36.75 Ry     beta=0.10
     Davidson diagonalization with overlap
     ethr =  1.44E-04,  avg # of iterations =  3.9

     negative rho (up, down):  2.019E-05 0.000E+00
 
     Adding external electric field

     Computed dipole along edir(3) : 
        Dipole               -0.2529 Ry au,         -0.6428 Debye
        Dipole field         -0.0003 Ry au
 
        Potential amp.        0.0349 Ry
        Total length         52.5607 bohr
 

     total cpu time spent up to now is     1282.0 secs

     total energy              =   -4330.04678711 Ry
     Harris-Foulkes estimate   =   -4330.04650329 Ry
     estimated scf accuracy    <       0.10264961 Ry

     iteration #  7     ecut=    36.75 Ry     beta=0.10
     Davidson diagonalization with overlap
     ethr =  2.50E-05,  avg # of iterations =  6.2

     negative rho (up, down):  1.323E-05 0.000E+00
 
     Adding external electric field

     Computed dipole along edir(3) : 
        Dipole               -0.2606 Ry au,         -0.6624 Debye
        Dipole field         -0.0003 Ry au
 
        Potential amp.        0.0359 Ry
        Total length         52.5607 bohr
 

     total cpu time spent up to now is     1487.2 secs

     total energy              =   -4330.04605378 Ry
     Harris-Foulkes estimate   =   -4330.05245609 Ry
     estimated scf accuracy    <       0.15601203 Ry

     iteration #  8     ecut=    36.75 Ry     beta=0.10
     Davidson diagonalization with overlap
     ethr =  2.50E-05,  avg # of iterations =  1.0

     negative rho (up, down):  6.333E-06 0.000E+00
 
     Adding external electric field

     Computed dipole along edir(3) : 
        Dipole               -0.3248 Ry au,         -0.8256 Debye
        Dipole field         -0.0004 Ry au
 
        Potential amp.        0.0448 Ry
        Total length         52.5607 bohr
 

     total cpu time spent up to now is     1666.7 secs

     total energy              =   -4330.02939450 Ry
     Harris-Foulkes estimate   =   -4330.04751431 Ry
     estimated scf accuracy    <       0.11158792 Ry

     iteration #  9     ecut=    36.75 Ry     beta=0.10
     Davidson diagonalization with overlap
     ethr =  2.50E-05,  avg # of iterations =  4.0

     negative rho (up, down):  4.541E-06 0.000E+00
 
     Adding external electric field

     Computed dipole along edir(3) : 
        Dipole               -0.3407 Ry au,         -0.8661 Debye
        Dipole field         -0.0004 Ry au
 
        Potential amp.        0.0470 Ry
        Total length         52.5607 bohr
 

     total cpu time spent up to now is     1866.9 secs

     total energy              =   -4330.03701884 Ry
     Harris-Foulkes estimate   =   -4330.04238415 Ry
     estimated scf accuracy    <       0.04944021 Ry

     iteration # 10     ecut=    36.75 Ry     beta=0.10
     Davidson diagonalization with overlap
     ethr =  1.21E-05,  avg # of iterations =  2.4

     negative rho (up, down):  3.175E-06 0.000E+00
 
     Adding external electric field

     Computed dipole along edir(3) : 
        Dipole               -0.3788 Ry au,         -0.9629 Debye
        Dipole field         -0.0005 Ry au
 
        Potential amp.        0.0522 Ry
        Total length         52.5607 bohr
 

     total cpu time spent up to now is     2058.2 secs

     total energy              =   -4330.03829449 Ry
     Harris-Foulkes estimate   =   -4330.03913782 Ry
     estimated scf accuracy    <       0.02374884 Ry

     iteration # 11     ecut=    36.75 Ry     beta=0.10
     Davidson diagonalization with overlap
     ethr =  5.79E-06,  avg # of iterations =  6.5

     negative rho (up, down):  5.185E-06 0.000E+00
 
     Adding external electric field

     Computed dipole along edir(3) : 
        Dipole               -0.4826 Ry au,         -1.2267 Debye
        Dipole field         -0.0006 Ry au
 
        Potential amp.        0.0666 Ry
        Total length         52.5607 bohr
 

     total cpu time spent up to now is     2268.3 secs

     total energy              =   -4330.03911391 Ry
     Harris-Foulkes estimate   =   -4330.03872903 Ry
     estimated scf accuracy    <       0.02001318 Ry

     iteration # 12     ecut=    36.75 Ry     beta=0.10
     Davidson diagonalization with overlap
     ethr =  4.88E-06,  avg # of iterations =  3.3

     negative rho (up, down):  5.243E-06 0.000E+00
 
     Adding external electric field

     Computed dipole along edir(3) : 
        Dipole               -0.5007 Ry au,         -1.2726 Debye
        Dipole field         -0.0007 Ry au
 
        Potential amp.        0.0690 Ry
        Total length         52.5607 bohr
 

     total cpu time spent up to now is     2454.5 secs

     total energy              =   -4330.03988122 Ry
     Harris-Foulkes estimate   =   -4330.04072773 Ry
     estimated scf accuracy    <       0.02989233 Ry

     iteration # 13     ecut=    36.75 Ry     beta=0.10
     Davidson diagonalization with overlap
     ethr =  4.88E-06,  avg # of iterations =  1.0

     negative rho (up, down):  4.471E-06 0.000E+00
 
     Adding external electric field

     Computed dipole along edir(3) : 
        Dipole               -0.5489 Ry au,         -1.3951 Debye
        Dipole field         -0.0007 Ry au
 
        Potential amp.        0.0757 Ry
        Total length         52.5607 bohr
 

     total cpu time spent up to now is     2622.4 secs

     total energy              =   -4330.03720880 Ry
     Harris-Foulkes estimate   =   -4330.04005915 Ry
     estimated scf accuracy    <       0.03264085 Ry

     iteration # 14     ecut=    36.75 Ry     beta=0.10
     Davidson diagonalization with overlap
     ethr =  4.88E-06,  avg # of iterations =  3.1

     negative rho (up, down):  6.991E-06 0.000E+00
 
     Adding external electric field

     Computed dipole along edir(3) : 
        Dipole               -0.5730 Ry au,         -1.4563 Debye
        Dipole field         -0.0008 Ry au
 
        Potential amp.        0.0790 Ry
        Total length         52.5607 bohr
 

     total cpu time spent up to now is     2800.5 secs

     total energy              =   -4330.03816606 Ry
     Harris-Foulkes estimate   =   -4330.03815151 Ry
     estimated scf accuracy    <       0.03881016 Ry

     iteration # 15     ecut=    36.75 Ry     beta=0.10
     Davidson diagonalization with overlap
     ethr =  4.88E-06,  avg # of iterations =  3.0

     negative rho (up, down):  2.408E-04 0.000E+00
 
     Adding external electric field

     Computed dipole along edir(3) : 
        Dipole               -0.6667 Ry au,         -1.6946 Debye
        Dipole field         -0.0009 Ry au
 
        Potential amp.        0.0919 Ry
        Total length         52.5607 bohr
 

     total cpu time spent up to now is     2985.0 secs

     total energy              =   -4330.03786334 Ry
     Harris-Foulkes estimate   =   -4330.03933539 Ry
     estimated scf accuracy    <       0.02043788 Ry

     iteration # 16     ecut=    36.75 Ry     beta=0.10
     Davidson diagonalization with overlap
     ethr =  4.88E-06,  avg # of iterations =  2.0

     negative rho (up, down):  9.741E-03 0.000E+00
 
     Adding external electric field

     Computed dipole along edir(3) : 
        Dipole               -0.8357 Ry au,         -2.1242 Debye
        Dipole field         -0.0011 Ry au
 
        Potential amp.        0.1153 Ry
        Total length         52.5607 bohr
 

     total cpu time spent up to now is     3165.4 secs

     total energy              =   -4330.03813040 Ry
     Harris-Foulkes estimate   =   -4330.03851933 Ry
     estimated scf accuracy    <       0.03898444 Ry

     iteration # 17     ecut=    36.75 Ry     beta=0.10
     Davidson diagonalization with overlap
     ethr =  4.88E-06,  avg # of iterations =  1.0

     negative rho (up, down):  8.088E-03 0.000E+00
 
     Adding external electric field

     Computed dipole along edir(3) : 
        Dipole               -0.8277 Ry au,         -2.1038 Debye
        Dipole field         -0.0011 Ry au
 
        Potential amp.        0.1141 Ry
        Total length         52.5607 bohr
 

     total cpu time spent up to now is     3342.2 secs

     total energy              =   -4330.03775655 Ry
     Harris-Foulkes estimate   =   -4330.03858563 Ry
     estimated scf accuracy    <       0.02725606 Ry

     iteration # 18     ecut=    36.75 Ry     beta=0.10
     Davidson diagonalization with overlap
     ethr =  4.88E-06,  avg # of iterations =  2.5

     negative rho (up, down):  6.124E-04 0.000E+00
 
     Adding external electric field

     Computed dipole along edir(3) : 
        Dipole               -0.7344 Ry au,         -1.8666 Debye
        Dipole field         -0.0010 Ry au
 
        Potential amp.        0.1013 Ry
        Total length         52.5607 bohr
 

     total cpu time spent up to now is     3525.2 secs

     total energy              =   -4330.04058898 Ry
     Harris-Foulkes estimate   =   -4330.03915010 Ry
     estimated scf accuracy    <       0.01857508 Ry

     iteration # 19     ecut=    36.75 Ry     beta=0.10
     Davidson diagonalization with overlap
     ethr =  4.53E-06,  avg # of iterations =  2.5

     negative rho (up, down):  6.628E-06 0.000E+00
 
     Adding external electric field

     Computed dipole along edir(3) : 
        Dipole               -0.6928 Ry au,         -1.7610 Debye
        Dipole field         -0.0009 Ry au
 
        Potential amp.        0.0955 Ry
        Total length         52.5607 bohr
 

     total cpu time spent up to now is     3708.1 secs

     total energy              =   -4330.03861650 Ry
     Harris-Foulkes estimate   =   -4330.04123403 Ry
     estimated scf accuracy    <       0.02848491 Ry

     iteration # 20     ecut=    36.75 Ry     beta=0.10
     Davidson diagonalization with overlap
     ethr =  4.53E-06,  avg # of iterations =  1.6

     negative rho (up, down):  7.198E-04 0.000E+00
 
     Adding external electric field

     Computed dipole along edir(3) : 
        Dipole               -0.7646 Ry au,         -1.9435 Debye
        Dipole field         -0.0010 Ry au
 
        Potential amp.        0.1054 Ry
        Total length         52.5607 bohr
 

     total cpu time spent up to now is     3889.6 secs

     total energy              =   -4330.03567828 Ry
     Harris-Foulkes estimate   =   -4330.03877423 Ry
     estimated scf accuracy    <       0.02016879 Ry

     iteration # 21     ecut=    36.75 Ry     beta=0.10
     Davidson diagonalization with overlap
     ethr =  4.53E-06,  avg # of iterations =  2.5

     negative rho (up, down):  2.839E-03 0.000E+00
 
     Adding external electric field

     Computed dipole along edir(3) : 
        Dipole               -0.7936 Ry au,         -2.0171 Debye
        Dipole field         -0.0010 Ry au
 
        Potential amp.        0.1094 Ry
        Total length         52.5607 bohr
 

     total cpu time spent up to now is     4073.4 secs

     total energy              =   -4330.03514161 Ry
     Harris-Foulkes estimate   =   -4330.03631049 Ry
     estimated scf accuracy    <       0.00798770 Ry

     iteration # 22     ecut=    36.75 Ry     beta=0.10
     Davidson diagonalization with overlap
     ethr =  1.95E-06,  avg # of iterations =  4.0

     negative rho (up, down):  1.444E-03 0.000E+00
 
     Adding external electric field

     Computed dipole along edir(3) : 
        Dipole               -0.7783 Ry au,         -1.9784 Debye
        Dipole field         -0.0010 Ry au
 
        Potential amp.        0.1073 Ry
        Total length         52.5607 bohr
 

     total cpu time spent up to now is     4266.7 secs

     total energy              =   -4330.03534731 Ry
     Harris-Foulkes estimate   =   -4330.03555492 Ry
     estimated scf accuracy    <       0.00484814 Ry

     iteration # 23     ecut=    36.75 Ry     beta=0.10
     Davidson diagonalization with overlap
     ethr =  1.18E-06,  avg # of iterations =  2.9

     negative rho (up, down):  3.405E-04 0.000E+00
 
     Adding external electric field

     Computed dipole along edir(3) : 
        Dipole               -0.7625 Ry au,         -1.9382 Debye
        Dipole field         -0.0010 Ry au
 
        Potential amp.        0.1052 Ry
        Total length         52.5607 bohr
 

     total cpu time spent up to now is     4454.9 secs

     total energy              =   -4330.03558877 Ry
     Harris-Foulkes estimate   =   -4330.03552589 Ry
     estimated scf accuracy    <       0.00457158 Ry

     iteration # 24     ecut=    36.75 Ry     beta=0.10
     Davidson diagonalization with overlap
     ethr =  1.12E-06,  avg # of iterations =  2.7

     negative rho (up, down):  5.712E-04 0.000E+00
 
     Adding external electric field

     Computed dipole along edir(3) : 
        Dipole               -0.7686 Ry au,         -1.9535 Debye
        Dipole field         -0.0010 Ry au
 
        Potential amp.        0.1060 Ry
        Total length         52.5607 bohr
 

     total cpu time spent up to now is     4640.5 secs

     total energy              =   -4330.03554523 Ry
     Harris-Foulkes estimate   =   -4330.03574573 Ry
     estimated scf accuracy    <       0.00397917 Ry

     iteration # 25     ecut=    36.75 Ry     beta=0.10
     Davidson diagonalization with overlap
     ethr =  9.71E-07,  avg # of iterations =  1.4

     negative rho (up, down):  3.438E-03 0.000E+00
 
     Adding external electric field

     Computed dipole along edir(3) : 
        Dipole               -0.8060 Ry au,         -2.0487 Debye
        Dipole field         -0.0011 Ry au
 
        Potential amp.        0.1112 Ry
        Total length         52.5607 bohr
 

     total cpu time spent up to now is     4819.9 secs

     total energy              =   -4330.03625064 Ry
     Harris-Foulkes estimate   =   -4330.03555186 Ry
     estimated scf accuracy    <       0.00392502 Ry

     iteration # 26     ecut=    36.75 Ry     beta=0.10
     Davidson diagonalization with overlap
     ethr =  9.57E-07,  avg # of iterations =  3.1

     negative rho (up, down):  2.341E-03 0.000E+00
 
     Adding external electric field

     Computed dipole along edir(3) : 
        Dipole               -0.7859 Ry au,         -1.9977 Debye
        Dipole field         -0.0010 Ry au
 
        Potential amp.        0.1084 Ry
        Total length         52.5607 bohr
 

     total cpu time spent up to now is     5010.4 secs

     total energy              =   -4330.03725376 Ry
     Harris-Foulkes estimate   =   -4330.03663414 Ry
     estimated scf accuracy    <       0.00789708 Ry

     iteration # 27     ecut=    36.75 Ry     beta=0.10
     Davidson diagonalization with overlap
     ethr =  9.57E-07,  avg # of iterations =  2.0

     negative rho (up, down):  3.007E-04 0.000E+00
 
     Adding external electric field

     Computed dipole along edir(3) : 
        Dipole               -0.7613 Ry au,         -1.9350 Debye
        Dipole field         -0.0010 Ry au
 
        Potential amp.        0.1050 Ry
        Total length         52.5607 bohr
 

     total cpu time spent up to now is     5191.5 secs

     total energy              =   -4330.03567050 Ry
     Harris-Foulkes estimate   =   -4330.03740169 Ry
     estimated scf accuracy    <       0.01047205 Ry

     iteration # 28     ecut=    36.75 Ry     beta=0.10
     Davidson diagonalization with overlap
     ethr =  9.57E-07,  avg # of iterations =  2.8

     negative rho (up, down):  1.388E-03 0.000E+00
 
     Adding external electric field

     Computed dipole along edir(3) : 
        Dipole               -0.7705 Ry au,         -1.9583 Debye
        Dipole field         -0.0010 Ry au
 
        Potential amp.        0.1063 Ry
        Total length         52.5607 bohr
 

     total cpu time spent up to now is     5379.8 secs

     total energy              =   -4330.03684167 Ry
     Harris-Foulkes estimate   =   -4330.03599314 Ry
     estimated scf accuracy    <       0.00569222 Ry

     iteration # 29     ecut=    36.75 Ry     beta=0.10
     Davidson diagonalization with overlap
     ethr =  9.57E-07,  avg # of iterations =  2.8

     negative rho (up, down):  4.740E-04 0.000E+00
 
     Adding external electric field

     Computed dipole along edir(3) : 
        Dipole               -0.7433 Ry au,         -1.8892 Debye
        Dipole field         -0.0010 Ry au
 
        Potential amp.        0.1025 Ry
        Total length         52.5607 bohr
 

     total cpu time spent up to now is     5567.9 secs

     total energy              =   -4330.03704222 Ry
     Harris-Foulkes estimate   =   -4330.03708416 Ry
     estimated scf accuracy    <       0.00921233 Ry

     iteration # 30     ecut=    36.75 Ry     beta=0.10
     Davidson diagonalization with overlap
     ethr =  9.57E-07,  avg # of iterations =  1.0

     negative rho (up, down):  3.628E-04 0.000E+00
 
     Adding external electric field

     Computed dipole along edir(3) : 
        Dipole               -0.7423 Ry au,         -1.8868 Debye
        Dipole field         -0.0010 Ry au
 
        Potential amp.        0.1024 Ry
        Total length         52.5607 bohr
 

     total cpu time spent up to now is     5752.7 secs

     total energy              =   -4330.03680518 Ry
     Harris-Foulkes estimate   =   -4330.03707820 Ry
     estimated scf accuracy    <       0.00936729 Ry

     iteration # 31     ecut=    36.75 Ry     beta=0.10
     Davidson diagonalization with overlap
     ethr =  9.57E-07,  avg # of iterations =  1.0

     negative rho (up, down):  1.349E-04 0.000E+00
 
     Adding external electric field

     Computed dipole along edir(3) : 
        Dipole               -0.7237 Ry au,         -1.8395 Debye
        Dipole field         -0.0009 Ry au
 
        Potential amp.        0.0998 Ry
        Total length         52.5607 bohr
 

     total cpu time spent up to now is     5934.6 secs

     total energy              =   -4330.03490793 Ry
     Harris-Foulkes estimate   =   -4330.03685967 Ry
     estimated scf accuracy    <       0.00872381 Ry

     iteration # 32     ecut=    36.75 Ry     beta=0.10
     Davidson diagonalization with overlap
     ethr =  9.57E-07,  avg # of iterations =  3.8

     negative rho (up, down):  3.150E-05 0.000E+00
 
     Adding external electric field

     Computed dipole along edir(3) : 
        Dipole               -0.6995 Ry au,         -1.7779 Debye
        Dipole field         -0.0009 Ry au
 
        Potential amp.        0.0965 Ry
        Total length         52.5607 bohr
 

     total cpu time spent up to now is     6134.7 secs

     total energy              =   -4330.03520614 Ry
     Harris-Foulkes estimate   =   -4330.03543688 Ry
     estimated scf accuracy    <       0.00292205 Ry

     iteration # 33     ecut=    36.75 Ry     beta=0.10
     Davidson diagonalization with overlap
     ethr =  7.13E-07,  avg # of iterations =  2.0

     negative rho (up, down):  1.212E-05 0.000E+00
 
     Adding external electric field

     Computed dipole along edir(3) : 
        Dipole               -0.6714 Ry au,         -1.7066 Debye
        Dipole field         -0.0009 Ry au
 
        Potential amp.        0.0926 Ry
        Total length         52.5607 bohr
 

     total cpu time spent up to now is     6318.4 secs

     total energy              =   -4330.03521483 Ry
     Harris-Foulkes estimate   =   -4330.03530992 Ry
     estimated scf accuracy    <       0.00247642 Ry

     iteration # 34     ecut=    36.75 Ry     beta=0.10
     Davidson diagonalization with overlap
     ethr =  6.04E-07,  avg # of iterations =  2.8

     negative rho (up, down):  4.908E-05 0.000E+00
 
     Adding external electric field

     Computed dipole along edir(3) : 
        Dipole               -0.6352 Ry au,         -1.6145 Debye
        Dipole field         -0.0008 Ry au
 
        Potential amp.        0.0876 Ry
        Total length         52.5607 bohr
 

     total cpu time spent up to now is     6498.6 secs

     total energy              =   -4330.03513226 Ry
     Harris-Foulkes estimate   =   -4330.03530788 Ry
     estimated scf accuracy    <       0.00227340 Ry

     iteration # 35     ecut=    36.75 Ry     beta=0.10
     Davidson diagonalization with overlap
     ethr =  5.54E-07,  avg # of iterations =  2.4

     negative rho (up, down):  2.548E-04 0.000E+00
 
     Adding external electric field

     Computed dipole along edir(3) : 
        Dipole               -0.6544 Ry au,         -1.6633 Debye
        Dipole field         -0.0009 Ry au
 
        Potential amp.        0.0902 Ry
        Total length         52.5607 bohr
 

     total cpu time spent up to now is     6677.5 secs

     total energy              =   -4330.03495033 Ry
     Harris-Foulkes estimate   =   -4330.03514930 Ry
     estimated scf accuracy    <       0.00205732 Ry

     iteration # 36     ecut=    36.75 Ry     beta=0.10
     Davidson diagonalization with overlap
     ethr =  5.02E-07,  avg # of iterations =  2.3

     negative rho (up, down):  9.887E-04 0.000E+00
 
     Adding external electric field

     Computed dipole along edir(3) : 
        Dipole               -0.6581 Ry au,         -1.6726 Debye
        Dipole field         -0.0009 Ry au
 
        Potential amp.        0.0908 Ry
        Total length         52.5607 bohr
 

     total cpu time spent up to now is     6860.7 secs

     total energy              =   -4330.03470676 Ry
     Harris-Foulkes estimate   =   -4330.03498350 Ry
     estimated scf accuracy    <       0.00178493 Ry

     iteration # 37     ecut=    36.75 Ry     beta=0.10
     Davidson diagonalization with overlap
     ethr =  4.35E-07,  avg # of iterations =  1.7

     negative rho (up, down):  1.406E-03 0.000E+00
 
     Adding external electric field

     Computed dipole along edir(3) : 
        Dipole               -0.6371 Ry au,         -1.6194 Debye
        Dipole field         -0.0008 Ry au
 
        Potential amp.        0.0879 Ry
        Total length         52.5607 bohr
 

     total cpu time spent up to now is     7047.6 secs

     total energy              =   -4330.03464623 Ry
     Harris-Foulkes estimate   =   -4330.03482718 Ry
     estimated scf accuracy    <       0.00155509 Ry

     iteration # 38     ecut=    36.75 Ry     beta=0.10
     Davidson diagonalization with overlap
     ethr =  3.79E-07,  avg # of iterations =  3.1

     negative rho (up, down):  6.751E-04 0.000E+00
 
     Adding external electric field

     Computed dipole along edir(3) : 
        Dipole               -0.6151 Ry au,         -1.5635 Debye
        Dipole field         -0.0008 Ry au
 
        Potential amp.        0.0848 Ry
        Total length         52.5607 bohr
 

     total cpu time spent up to now is     7237.8 secs

     total energy              =   -4330.03471094 Ry
     Harris-Foulkes estimate   =   -4330.03471419 Ry
     estimated scf accuracy    <       0.00135432 Ry

     iteration # 39     ecut=    36.75 Ry     beta=0.10
     Davidson diagonalization with overlap
     ethr =  3.30E-07,  avg # of iterations =  1.0

     negative rho (up, down):  9.655E-04 0.000E+00
 
     Adding external electric field

     Computed dipole along edir(3) : 
        Dipole               -0.6202 Ry au,         -1.5765 Debye
        Dipole field         -0.0008 Ry au
 
        Potential amp.        0.0855 Ry
        Total length         52.5607 bohr
 

     total cpu time spent up to now is     7418.1 secs

     total energy              =   -4330.03468922 Ry
     Harris-Foulkes estimate   =   -4330.03471358 Ry
     estimated scf accuracy    <       0.00136979 Ry

     iteration # 40     ecut=    36.75 Ry     beta=0.10
     Davidson diagonalization with overlap
     ethr =  3.30E-07,  avg # of iterations =  1.4

     negative rho (up, down):  1.091E-03 0.000E+00
 
     Adding external electric field

     Computed dipole along edir(3) : 
        Dipole               -0.6301 Ry au,         -1.6015 Debye
        Dipole field         -0.0008 Ry au
 
        Potential amp.        0.0869 Ry
        Total length         52.5607 bohr
 

     total cpu time spent up to now is     7600.3 secs

     total energy              =   -4330.03467931 Ry
     Harris-Foulkes estimate   =   -4330.03467979 Ry
     estimated scf accuracy    <       0.00133849 Ry

     iteration # 41     ecut=    36.75 Ry     beta=0.10
     Davidson diagonalization with overlap
     ethr =  3.26E-07,  avg # of iterations =  1.0

     negative rho (up, down):  6.201E-04 0.000E+00
 
     Adding external electric field

     Computed dipole along edir(3) : 
        Dipole               -0.6100 Ry au,         -1.5506 Debye
        Dipole field         -0.0008 Ry au
 
        Potential amp.        0.0841 Ry
        Total length         52.5607 bohr
 

     total cpu time spent up to now is     7783.8 secs

     total energy              =   -4330.03462118 Ry
     Harris-Foulkes estimate   =   -4330.03471574 Ry
     estimated scf accuracy    <       0.00129133 Ry

     iteration # 42     ecut=    36.75 Ry     beta=0.10
     Davidson diagonalization with overlap
     ethr =  3.15E-07,  avg # of iterations =  2.0

     negative rho (up, down):  5.492E-04 0.000E+00
 
     Adding external electric field

     Computed dipole along edir(3) : 
        Dipole               -0.5823 Ry au,         -1.4800 Debye
        Dipole field         -0.0008 Ry au
 
        Potential amp.        0.0803 Ry
        Total length         52.5607 bohr
 

     total cpu time spent up to now is     7972.0 secs

     total energy              =   -4330.03455691 Ry
     Harris-Foulkes estimate   =   -4330.03469269 Ry
     estimated scf accuracy    <       0.00120621 Ry

     iteration # 43     ecut=    36.75 Ry     beta=0.10
     Davidson diagonalization with overlap
     ethr =  2.94E-07,  avg # of iterations =  1.0

     negative rho (up, down):  6.282E-04 0.000E+00
 
     Adding external electric field

     Computed dipole along edir(3) : 
        Dipole               -0.5569 Ry au,         -1.4156 Debye
        Dipole field         -0.0007 Ry au
 
        Potential amp.        0.0768 Ry
        Total length         52.5607 bohr
 

     total cpu time spent up to now is     8154.0 secs

     total energy              =   -4330.03453847 Ry
     Harris-Foulkes estimate   =   -4330.03461323 Ry
     estimated scf accuracy    <       0.00108684 Ry

     iteration # 44     ecut=    36.75 Ry     beta=0.10
     Davidson diagonalization with overlap
     ethr =  2.65E-07,  avg # of iterations =  1.0

     negative rho (up, down):  9.882E-04 0.000E+00
 
     Adding external electric field

     Computed dipole along edir(3) : 
        Dipole               -0.4523 Ry au,         -1.1497 Debye
        Dipole field         -0.0006 Ry au
 
        Potential amp.        0.0624 Ry
        Total length         52.5607 bohr
 

     total cpu time spent up to now is     8338.1 secs

     total energy              =   -4330.03429121 Ry
     Harris-Foulkes estimate   =   -4330.03468748 Ry
     estimated scf accuracy    <       0.00092468 Ry

     iteration # 45     ecut=    36.75 Ry     beta=0.10
     Davidson diagonalization with overlap
     ethr =  2.26E-07,  avg # of iterations =  3.8

     negative rho (up, down):  1.323E-03 0.000E+00
 
     Adding external electric field

     Computed dipole along edir(3) : 
        Dipole               -0.4460 Ry au,         -1.1337 Debye
        Dipole field         -0.0006 Ry au
 
        Potential amp.        0.0615 Ry
        Total length         52.5607 bohr
 

     total cpu time spent up to now is     8540.0 secs

     total energy              =   -4330.03431834 Ry
     Harris-Foulkes estimate   =   -4330.03440884 Ry
     estimated scf accuracy    <       0.00047756 Ry

     iteration # 46     ecut=    36.75 Ry     beta=0.10
     Davidson diagonalization with overlap
     ethr =  1.16E-07,  avg # of iterations =  2.0

     negative rho (up, down):  1.887E-03 0.000E+00
 
     Adding external electric field

     Computed dipole along edir(3) : 
        Dipole               -0.4100 Ry au,         -1.0421 Debye
        Dipole field         -0.0005 Ry au
 
        Potential amp.        0.0565 Ry
        Total length         52.5607 bohr
 

     total cpu time spent up to now is     8728.5 secs

     total energy              =   -4330.03426332 Ry
     Harris-Foulkes estimate   =   -4330.03437798 Ry
     estimated scf accuracy    <       0.00025060 Ry

     iteration # 47     ecut=    36.75 Ry     beta=0.10
     Davidson diagonalization with overlap
     ethr =  6.11E-08,  avg # of iterations =  3.9

     negative rho (up, down):  1.575E-03 0.000E+00
 
     Adding external electric field

     Computed dipole along edir(3) : 
        Dipole               -0.4197 Ry au,         -1.0668 Debye
        Dipole field         -0.0006 Ry au
 
        Potential amp.        0.0579 Ry
        Total length         52.5607 bohr
 

     total cpu time spent up to now is     8929.8 secs

     total energy              =   -4330.03428222 Ry
     Harris-Foulkes estimate   =   -4330.03427657 Ry
     estimated scf accuracy    <       0.00016750 Ry

     iteration # 48     ecut=    36.75 Ry     beta=0.10
     Davidson diagonalization with overlap
     ethr =  4.09E-08,  avg # of iterations =  1.1

     negative rho (up, down):  1.203E-03 0.000E+00
 
     Adding external electric field

     Computed dipole along edir(3) : 
        Dipole               -0.4219 Ry au,         -1.0723 Debye
        Dipole field         -0.0006 Ry au
 
        Potential amp.        0.0582 Ry
        Total length         52.5607 bohr
 

     total cpu time spent up to now is     9113.4 secs

     total energy              =   -4330.03426481 Ry
     Harris-Foulkes estimate   =   -4330.03428201 Ry
     estimated scf accuracy    <       0.00013655 Ry

     iteration # 49     ecut=    36.75 Ry     beta=0.10
     Davidson diagonalization with overlap
     ethr =  3.33E-08,  avg # of iterations =  3.0

     negative rho (up, down):  1.525E-03 0.000E+00
 
     Adding external electric field

     Computed dipole along edir(3) : 
        Dipole               -0.4065 Ry au,         -1.0333 Debye
        Dipole field         -0.0005 Ry au
 
        Potential amp.        0.0561 Ry
        Total length         52.5607 bohr
 

     total cpu time spent up to now is     9314.0 secs

     total energy              =   -4330.03425144 Ry
     Harris-Foulkes estimate   =   -4330.03428819 Ry
     estimated scf accuracy    <       0.00007401 Ry

     iteration # 50     ecut=    36.75 Ry     beta=0.10
     Davidson diagonalization with overlap
     ethr =  1.81E-08,  avg # of iterations =  2.0

     negative rho (up, down):  1.448E-03 0.000E+00
 
     Adding external electric field

     Computed dipole along edir(3) : 
        Dipole               -0.4053 Ry au,         -1.0301 Debye
        Dipole field         -0.0005 Ry au
 
        Potential amp.        0.0559 Ry
        Total length         52.5607 bohr
 

     total cpu time spent up to now is     9501.9 secs

     total energy              =   -4330.03425270 Ry
     Harris-Foulkes estimate   =   -4330.03425554 Ry
     estimated scf accuracy    <       0.00005313 Ry

     iteration # 51     ecut=    36.75 Ry     beta=0.10
     Davidson diagonalization with overlap
     ethr =  1.30E-08,  avg # of iterations =  2.4

     negative rho (up, down):  1.499E-03 0.000E+00
 
     Adding external electric field

     Computed dipole along edir(3) : 
        Dipole               -0.4130 Ry au,         -1.0498 Debye
        Dipole field         -0.0005 Ry au
 
        Potential amp.        0.0570 Ry
        Total length         52.5607 bohr
 

     total cpu time spent up to now is     9701.3 secs

     total energy              =   -4330.03424588 Ry
     Harris-Foulkes estimate   =   -4330.03424573 Ry
     estimated scf accuracy    <       0.00004463 Ry

     iteration # 52     ecut=    36.75 Ry     beta=0.10
     Davidson diagonalization with overlap
     ethr =  1.09E-08,  avg # of iterations =  3.1

     negative rho (up, down):  2.338E-03 0.000E+00
 
     Adding external electric field

     Computed dipole along edir(3) : 
        Dipole               -0.4045 Ry au,         -1.0281 Debye
        Dipole field         -0.0005 Ry au
 
        Potential amp.        0.0558 Ry
        Total length         52.5607 bohr
 

     total cpu time spent up to now is     9895.7 secs

     total energy              =   -4330.03423338 Ry
     Harris-Foulkes estimate   =   -4330.03425701 Ry
     estimated scf accuracy    <       0.00003008 Ry

     iteration # 53     ecut=    36.75 Ry     beta=0.10
     Davidson diagonalization with overlap
     ethr =  7.34E-09,  avg # of iterations =  3.2

     negative rho (up, down):  2.612E-03 0.000E+00
 
     Adding external electric field

     Computed dipole along edir(3) : 
        Dipole               -0.3964 Ry au,         -1.0076 Debye
        Dipole field         -0.0005 Ry au
 
        Potential amp.        0.0547 Ry
        Total length         52.5607 bohr
 

     total cpu time spent up to now is    10103.4 secs

     total energy              =   -4330.03423257 Ry
     Harris-Foulkes estimate   =   -4330.03424429 Ry
     estimated scf accuracy    <       0.00001773 Ry

     iteration # 54     ecut=    36.75 Ry     beta=0.10
     Davidson diagonalization with overlap
     ethr =  4.33E-09,  avg # of iterations =  2.0

     negative rho (up, down):  2.710E-03 0.000E+00
 
     Adding external electric field

     Computed dipole along edir(3) : 
        Dipole               -0.3950 Ry au,         -1.0041 Debye
        Dipole field         -0.0005 Ry au
 
        Potential amp.        0.0545 Ry
        Total length         52.5607 bohr
 

     total cpu time spent up to now is    10301.7 secs

     total energy              =   -4330.03423150 Ry
     Harris-Foulkes estimate   =   -4330.03423464 Ry
     estimated scf accuracy    <       0.00001292 Ry

     iteration # 55     ecut=    36.75 Ry     beta=0.10
     Davidson diagonalization with overlap
     ethr =  3.15E-09,  avg # of iterations =  3.3

     negative rho (up, down):  2.933E-03 0.000E+00
 
     Adding external electric field

     Computed dipole along edir(3) : 
        Dipole               -0.3992 Ry au,         -1.0146 Debye
        Dipole field         -0.0005 Ry au
 
        Potential amp.        0.0550 Ry
        Total length         52.5607 bohr
 

     total cpu time spent up to now is    10498.5 secs

     total energy              =   -4330.03422988 Ry
     Harris-Foulkes estimate   =   -4330.03422768 Ry
     estimated scf accuracy    <       0.00000951 Ry

     iteration # 56     ecut=    36.75 Ry     beta=0.10
     Davidson diagonalization with overlap
     ethr =  2.32E-09,  avg # of iterations =  3.1

     negative rho (up, down):  3.644E-03 0.000E+00
 
     Adding external electric field

     Computed dipole along edir(3) : 
        Dipole               -0.4159 Ry au,         -1.0572 Debye
        Dipole field         -0.0005 Ry au
 
        Potential amp.        0.0574 Ry
        Total length         52.5607 bohr
 

     total cpu time spent up to now is    10684.9 secs

     End of self-consistent calculation

          k = 0.0000 0.0000 0.0000 ( 36131 PWs)   bands (ev):

   -17.2573 -11.2186  -8.1924  -7.0158  -6.6957  -6.5960  -6.5562  -6.4999
    -6.4739  -5.8617  -5.8150  -5.4819  -5.0444  -5.0196  -4.9938  -4.8611
    -4.4630  -4.3386  -4.3234  -4.2114  -4.1761  -4.1095  -4.0773  -4.0501
    -4.0430  -4.0098  -3.9958  -3.9001  -3.8183  -3.7997  -3.7606  -3.7451
    -3.7387  -3.7329  -3.7077  -3.6790  -3.6317  -3.6187  -3.6152  -3.6046
    -3.5793  -3.5605  -3.5267  -3.4696  -3.4672  -3.4182  -3.3978  -3.3647
    -3.2988  -3.2733  -3.2560  -3.2492  -3.2088  -3.1690  -3.0974  -3.0699
    -3.0107  -2.9943  -2.9874  -2.9636  -2.9537  -2.9395  -2.9316  -2.9252
    -2.9194  -2.8944  -2.8891  -2.8719  -2.8405  -2.8349  -2.8186  -2.8030
    -2.7820  -2.7754  -2.7373  -2.7287  -2.7255  -2.6903  -2.6655  -2.6453
    -2.6391  -2.6107  -2.6014  -2.5898  -2.5565  -2.5406  -2.5211  -2.5097
    -2.5073  -2.5014  -2.4816  -2.4754  -2.4555  -2.4466  -2.4341  -2.4186
    -2.4000  -2.3960  -2.3852  -2.3706  -2.3498  -2.3432  -2.3333  -2.3005
    -2.2995  -2.2889  -2.2705  -2.2669  -2.2542  -2.2408  -2.2363  -2.2175
    -2.2068  -2.1990  -2.1792  -2.1722  -2.1687  -2.1542  -2.1178  -2.0869
    -2.0786  -2.0497  -2.0468  -2.0305  -2.0198  -2.0082  -2.0042  -1.9693
    -1.9687  -1.9550  -1.9291  -1.9106  -1.8811  -1.8765  -1.8617  -1.8403
    -1.8332  -1.8172  -1.8055  -1.7917  -1.7775  -1.7527  -1.7277  -1.6984
    -1.6819  -1.6686  -1.6626  -1.6479  -1.6419  -1.6298  -1.6229  -1.6168
    -1.5963  -1.5826  -1.5789  -1.5689  -1.5613  -1.5447  -1.5368  -1.5310
    -1.5244  -1.5220  -1.5083  -1.4973  -1.4819  -1.4781  -1.4713  -1.4603
    -1.4459  -1.4251  -1.4192  -1.4150  -1.4038  -1.3845  -1.3644  -1.3564
    -1.3544  -1.3454  -1.3369  -1.3270  -1.3140  -1.3050  -1.3032  -1.2970
    -1.2730  -1.2665  -1.2612  -1.2579  -1.2535  -1.2413  -1.2044  -1.1643
    -1.0914  -1.0797  -1.0699  -0.9138  -0.7426  -0.7294  -0.5878  -0.3966
    -0.0602  -0.0040   0.2550   0.3488   0.3603   0.3726   0.4494   0.6502
     0.9480   0.9820   1.0445   1.0865   1.1391   1.3685   1.7607

          k = 0.0000 0.0392 0.0000 ( 36033 PWs)   bands (ev):

   -17.2571 -11.2178  -7.9540  -6.8149  -6.6903  -6.5934  -6.5576  -6.5101
    -6.4698  -6.1407  -5.6871  -5.6435  -5.4135  -5.0387  -4.9404  -4.7600
    -4.5283  -4.5112  -4.4693  -4.3743  -4.3424  -4.3077  -4.2594  -4.1858
    -4.1325  -4.0149  -3.9312  -3.8743  -3.8266  -3.8074  -3.7954  -3.7772
    -3.7302  -3.6951  -3.6513  -3.6135  -3.5769  -3.5679  -3.5604  -3.5394
    -3.4711  -3.4433  -3.4202  -3.3965  -3.3768  -3.3702  -3.3660  -3.3437
    -3.3311  -3.2870  -3.2640  -3.2489  -3.1938  -3.1741  -3.1612  -3.1242
    -3.1129  -3.0868  -3.0641  -3.0464  -2.9878  -2.9629  -2.9336  -2.9173
    -2.8997  -2.8808  -2.8639  -2.8340  -2.7969  -2.7917  -2.7722  -2.7505
    -2.7447  -2.7133  -2.7012  -2.6923  -2.6786  -2.6577  -2.6377  -2.6252
    -2.6138  -2.6067  -2.5895  -2.5570  -2.5448  -2.5319  -2.5157  -2.4965
    -2.4921  -2.4771  -2.4641  -2.4596  -2.4529  -2.4457  -2.4409  -2.4327
    -2.4232  -2.4135  -2.3951  -2.3812  -2.3767  -2.3671  -2.3545  -2.3276
    -2.3108  -2.2988  -2.2797  -2.2680  -2.2448  -2.2187  -2.2004  -2.1990
    -2.1780  -2.1533  -2.1379  -2.1103  -2.1039  -2.0809  -2.0689  -2.0657
    -2.0549  -2.0300  -2.0175  -2.0066  -1.9956  -1.9815  -1.9641  -1.9450
    -1.9245  -1.9144  -1.9003  -1.8896  -1.8811  -1.8706  -1.8544  -1.8511
    -1.8323  -1.8167  -1.7996  -1.7796  -1.7632  -1.7467  -1.7369  -1.7156
    -1.6999  -1.6872  -1.6722  -1.6596  -1.6432  -1.6351  -1.6167  -1.6076
    -1.5996  -1.5772  -1.5699  -1.5603  -1.5374  -1.5337  -1.5225  -1.5119
    -1.5041  -1.4975  -1.4916  -1.4837  -1.4750  -1.4670  -1.4592  -1.4470
    -1.4369  -1.4324  -1.4163  -1.4079  -1.3992  -1.3952  -1.3856  -1.3711
    -1.3675  -1.3520  -1.3432  -1.3349  -1.3308  -1.3200  -1.3034  -1.2946
    -1.2823  -1.2591  -1.2519  -1.2457  -1.2109  -1.1993  -1.1898  -1.1778
    -1.1678  -1.1098  -1.0979  -1.0290  -0.9261  -0.8335  -0.7326  -0.6435
    -0.4851  -0.4133  -0.2317  -0.1826  -0.0923   0.0459   0.6305   0.7549
     0.8881   1.1255   1.3284   1.5501   1.8411   2.1828   2.1970

          k = 0.0000-0.0784 0.0000 ( 36028 PWs)   bands (ev):

   -17.2570 -11.2170  -7.2748  -7.2521  -6.6929  -6.5970  -6.5590  -6.5148
    -6.4788  -6.1282  -6.1079  -5.2346  -5.1889  -5.1747  -5.1340  -4.8882
    -4.8250  -4.6794  -4.5113  -4.4994  -4.4708  -4.3586  -4.3133  -4.2907
    -4.2402  -4.0233  -3.9074  -3.8480  -3.8337  -3.8003  -3.7216  -3.6848
    -3.6352  -3.6029  -3.5986  -3.5840  -3.5730  -3.5486  -3.4900  -3.4736
    -3.4567  -3.4518  -3.4407  -3.4262  -3.4034  -3.3979  -3.3758  -3.3737
    -3.3594  -3.3318  -3.3126  -3.2825  -3.2566  -3.1825  -3.1239  -3.1163
    -3.1013  -3.0801  -3.0635  -2.9929  -2.9709  -2.9568  -2.9354  -2.8914
    -2.8743  -2.8644  -2.8555  -2.8033  -2.7886  -2.7761  -2.7675  -2.7613
    -2.7129  -2.7021  -2.6902  -2.6700  -2.6430  -2.6282  -2.6047  -2.5989
    -2.5886  -2.5760  -2.5669  -2.5548  -2.5521  -2.5356  -2.5120  -2.5051
    -2.4990  -2.4745  -2.4734  -2.4599  -2.4522  -2.4270  -2.4248  -2.4177
    -2.4051  -2.3958  -2.3896  -2.3808  -2.3781  -2.3555  -2.3452  -2.3215
    -2.3050  -2.2836  -2.2704  -2.2548  -2.2347  -2.2134  -2.2088  -2.1907
    -2.1697  -2.1642  -2.1293  -2.0988  -2.0867  -2.0814  -2.0730  -2.0517
    -2.0413  -2.0181  -2.0087  -1.9978  -1.9866  -1.9812  -1.9573  -1.9201
    -1.8825  -1.8769  -1.8739  -1.8685  -1.8565  -1.8463  -1.8345  -1.8323
    -1.8119  -1.8008  -1.7750  -1.7668  -1.7656  -1.7528  -1.7345  -1.7152
    -1.7111  -1.7042  -1.6951  -1.6883  -1.6771  -1.6635  -1.6471  -1.6251
    -1.6005  -1.5960  -1.5894  -1.5639  -1.5530  -1.5273  -1.5189  -1.4971
    -1.4885  -1.4782  -1.4585  -1.4542  -1.4438  -1.4377  -1.4283  -1.4138
    -1.4094  -1.4032  -1.3912  -1.3896  -1.3804  -1.3707  -1.3630  -1.3610
    -1.3585  -1.3493  -1.3390  -1.3269  -1.3201  -1.3117  -1.2986  -1.2959
    -1.2918  -1.2800  -1.2698  -1.2613  -1.2472  -1.2431  -1.2198  -1.2041
    -1.1992  -1.1766  -1.1474  -1.1370  -1.1174  -1.1109  -1.0329  -0.8540
    -0.6990  -0.5307  -0.2603  -0.1659   0.0147   0.0808   0.2169   0.4271
     0.7366   1.1461   1.6514   2.0308   2.0663   2.2147   2.5156

          k = 0.0320 0.0000 0.0000 ( 36032 PWs)   bands (ev):

   -17.2571 -11.2190  -8.0337  -6.9003  -6.8379  -6.6376  -6.5833  -6.5511
    -6.4936  -6.4726  -5.7344  -5.3340  -4.9062  -4.8834  -4.8421  -4.5925
    -4.3632  -4.2909  -4.2503  -4.2277  -4.1950  -4.1859  -4.1180  -4.0993
    -4.0886  -4.0744  -3.9465  -3.9033  -3.7983  -3.7863  -3.7773  -3.7632
    -3.7326  -3.7234  -3.7099  -3.6963  -3.6893  -3.6640  -3.6496  -3.6136
    -3.5808  -3.5482  -3.5285  -3.4979  -3.4274  -3.4176  -3.3802  -3.3626
    -3.3427  -3.3305  -3.2391  -3.2318  -3.1862  -3.1471  -3.1180  -3.0785
    -3.0523  -3.0325  -2.9920  -2.9721  -2.9578  -2.9536  -2.9454  -2.9364
    -2.9309  -2.9174  -2.8962  -2.8804  -2.8648  -2.8532  -2.8238  -2.7848
    -2.7735  -2.7529  -2.7390  -2.7215  -2.7058  -2.6904  -2.6688  -2.6542
    -2.6346  -2.6306  -2.6140  -2.6098  -2.5798  -2.5609  -2.5530  -2.5357
    -2.5187  -2.5029  -2.4957  -2.4880  -2.4764  -2.4660  -2.4562  -2.4356
    -2.4188  -2.4063  -2.3966  -2.3773  -2.3612  -2.3518  -2.3358  -2.3244
    -2.3041  -2.2904  -2.2794  -2.2734  -2.2660  -2.2547  -2.2341  -2.2208
    -2.2120  -2.1951  -2.1805  -2.1685  -2.1510  -2.1302  -2.1103  -2.0987
    -2.0865  -2.0681  -2.0640  -2.0429  -2.0310  -2.0115  -1.9942  -1.9877
    -1.9761  -1.9557  -1.9361  -1.9275  -1.9132  -1.9017  -1.8800  -1.8681
    -1.8535  -1.8329  -1.8197  -1.8053  -1.8024  -1.7871  -1.7677  -1.7535
    -1.7383  -1.7289  -1.7162  -1.6926  -1.6825  -1.6707  -1.6550  -1.6303
    -1.6274  -1.6114  -1.5818  -1.5778  -1.5649  -1.5535  -1.5327  -1.5249
    -1.5207  -1.4979  -1.4808  -1.4667  -1.4596  -1.4513  -1.4360  -1.4127
    -1.4074  -1.3942  -1.3832  -1.3781  -1.3695  -1.3670  -1.3600  -1.3386
    -1.3344  -1.3294  -1.3238  -1.3165  -1.3017  -1.3004  -1.2861  -1.2816
    -1.2666  -1.2548  -1.2471  -1.2239  -1.1993  -1.1497  -1.1237  -1.0849
    -0.9557  -0.8725  -0.8418  -0.7902  -0.6823  -0.5596  -0.4818  -0.3834
    -0.2816  -0.2347   0.0517   0.2921   0.3469   0.4407   0.6426   0.7297
     0.9374   1.2546   1.3230   1.3600   1.6230   1.7244   1.9100

          k = 0.0320 0.0392 0.0000 ( 36036 PWs)   bands (ev):

   -17.2570 -11.2182  -7.7971  -6.7614  -6.6743  -6.5905  -6.5689  -6.5263
    -6.4890  -6.4544  -6.0045  -5.5758  -5.2613  -5.0567  -4.9123  -4.7650
    -4.6033  -4.3753  -4.3247  -4.2846  -4.2313  -4.2188  -4.2063  -4.1938
    -4.1568  -4.1002  -3.9636  -3.9419  -3.8730  -3.7957  -3.7671  -3.7467
    -3.7242  -3.6922  -3.6653  -3.6341  -3.6245  -3.6023  -3.5934  -3.5417
    -3.5259  -3.5044  -3.4540  -3.4090  -3.3903  -3.3601  -3.3244  -3.3157
    -3.2889  -3.2730  -3.2471  -3.2316  -3.2004  -3.1739  -3.1441  -3.1371
    -3.0877  -3.0643  -3.0418  -3.0261  -3.0002  -2.9846  -2.9619  -2.9486
    -2.9319  -2.9152  -2.8955  -2.8568  -2.8201  -2.8017  -2.7823  -2.7663
    -2.7388  -2.7208  -2.7118  -2.7018  -2.6884  -2.6680  -2.6627  -2.6433
    -2.6352  -2.5999  -2.5942  -2.5568  -2.5521  -2.5374  -2.5315  -2.5211
    -2.5146  -2.4996  -2.4860  -2.4778  -2.4684  -2.4577  -2.4398  -2.4278
    -2.4275  -2.4131  -2.4062  -2.3984  -2.3829  -2.3512  -2.3433  -2.3329
    -2.3120  -2.3042  -2.2841  -2.2718  -2.2488  -2.2410  -2.2083  -2.1934
    -2.1816  -2.1659  -2.1471  -2.1354  -2.1142  -2.0902  -2.0805  -2.0677
    -2.0454  -2.0438  -2.0330  -2.0033  -1.9873  -1.9825  -1.9590  -1.9490
    -1.9343  -1.9250  -1.9157  -1.9013  -1.8955  -1.8721  -1.8650  -1.8514
    -1.8354  -1.8307  -1.8141  -1.8011  -1.7849  -1.7629  -1.7548  -1.7520
    -1.7364  -1.7233  -1.7148  -1.7011  -1.6887  -1.6747  -1.6614  -1.6378
    -1.6281  -1.6096  -1.6001  -1.5841  -1.5723  -1.5586  -1.5423  -1.5243
    -1.5222  -1.5062  -1.4934  -1.4837  -1.4713  -1.4505  -1.4444  -1.4402
    -1.4167  -1.4100  -1.3950  -1.3784  -1.3661  -1.3600  -1.3492  -1.3384
    -1.3276  -1.3135  -1.3056  -1.3020  -1.2935  -1.2831  -1.2794  -1.2712
    -1.2588  -1.2467  -1.2329  -1.2225  -1.2080  -1.1916  -1.1459  -1.1190
    -1.1068  -1.0098  -0.9241  -0.8853  -0.8690  -0.7262  -0.6988  -0.4106
    -0.3330  -0.1593  -0.0724  -0.0227   0.1996   0.5021   0.6564   0.8803
     0.9358   1.1096   1.2591   1.3316   1.5340   1.8542   2.1645

          k = 0.0320-0.0784 0.0000 ( 35966 PWs)   bands (ev):

   -17.2569 -11.2174  -7.1252  -7.1076  -6.7023  -6.5889  -6.5594  -6.5100
    -6.4772  -6.0313  -5.9865  -5.9658  -5.9133  -5.1046  -5.0252  -4.7283
    -4.7003  -4.5337  -4.5139  -4.4272  -4.3530  -4.2355  -4.2073  -4.1717
    -4.1516  -4.0856  -4.0195  -3.9068  -3.8474  -3.7863  -3.7423  -3.7280
    -3.7102  -3.6631  -3.6425  -3.6228  -3.5986  -3.5470  -3.5134  -3.5000
    -3.4967  -3.4722  -3.4630  -3.4491  -3.4378  -3.4178  -3.3916  -3.3435
    -3.3004  -3.2728  -3.2166  -3.2005  -3.1780  -3.1519  -3.1251  -3.1099
    -3.0909  -3.0776  -3.0481  -3.0247  -3.0125  -2.9694  -2.9555  -2.9286
    -2.9168  -2.8859  -2.8765  -2.8391  -2.8260  -2.8157  -2.7874  -2.7490
    -2.7341  -2.7242  -2.7056  -2.6643  -2.6411  -2.6289  -2.6200  -2.6119
    -2.6021  -2.5954  -2.5819  -2.5613  -2.5436  -2.5312  -2.5135  -2.5050
    -2.4897  -2.4783  -2.4749  -2.4607  -2.4520  -2.4386  -2.4339  -2.4018
    -2.3934  -2.3877  -2.3763  -2.3710  -2.3633  -2.3589  -2.3471  -2.3386
    -2.3249  -2.3213  -2.3044  -2.2931  -2.2486  -2.2437  -2.2248  -2.1984
    -2.1609  -2.1521  -2.1289  -2.1119  -2.1000  -2.0926  -2.0802  -2.0685
    -2.0573  -2.0353  -2.0304  -2.0250  -2.0080  -1.9968  -1.9810  -1.9593
    -1.9548  -1.9318  -1.9176  -1.8990  -1.8863  -1.8630  -1.8574  -1.8356
    -1.8162  -1.8072  -1.7962  -1.7839  -1.7647  -1.7460  -1.7331  -1.7198
    -1.7163  -1.7107  -1.7018  -1.6978  -1.6743  -1.6400  -1.6307  -1.6133
    -1.5994  -1.5937  -1.5779  -1.5557  -1.5422  -1.5313  -1.5188  -1.5084
    -1.5006  -1.4926  -1.4758  -1.4650  -1.4498  -1.4396  -1.4255  -1.4105
    -1.3957  -1.3913  -1.3851  -1.3782  -1.3709  -1.3611  -1.3539  -1.3415
    -1.3302  -1.3229  -1.3154  -1.3044  -1.2903  -1.2774  -1.2683  -1.2564
    -1.2506  -1.2412  -1.2325  -1.2221  -1.2157  -1.1961  -1.1864  -1.1598
    -1.1499  -1.1403  -1.0970  -0.9724  -0.9366  -0.8066  -0.7589  -0.6865
    -0.5633  -0.4720  -0.3471  -0.0361   0.0366   0.3284   0.7676   0.8304
     0.9846   1.1622   1.3443   1.5376   2.1646   2.3111   2.4793

          k = 0.0320-0.0392 0.0000 ( 36036 PWs)   bands (ev):

   -17.2570 -11.2182  -7.7980  -6.7726  -6.6599  -6.5984  -6.5596  -6.5213
    -6.4932  -6.4536  -6.0078  -5.5689  -5.2805  -5.0501  -4.9143  -4.7601
    -4.5980  -4.3772  -4.3131  -4.2808  -4.2451  -4.2254  -4.2090  -4.1812
    -4.1648  -4.1028  -3.9922  -3.9304  -3.8610  -3.7822  -3.7657  -3.7472
    -3.7240  -3.6859  -3.6632  -3.6370  -3.6268  -3.6068  -3.5883  -3.5568
    -3.5181  -3.4917  -3.4628  -3.4190  -3.3894  -3.3718  -3.3373  -3.3086
    -3.2875  -3.2607  -3.2492  -3.2381  -3.2027  -3.1749  -3.1679  -3.1182
    -3.0952  -3.0661  -3.0358  -3.0255  -2.9836  -2.9812  -2.9590  -2.9571
    -2.9386  -2.8959  -2.8842  -2.8546  -2.8235  -2.8046  -2.7837  -2.7659
    -2.7416  -2.7265  -2.7215  -2.7097  -2.6776  -2.6661  -2.6563  -2.6454
    -2.6227  -2.6080  -2.5970  -2.5643  -2.5560  -2.5385  -2.5331  -2.5225
    -2.5123  -2.5022  -2.4895  -2.4745  -2.4638  -2.4450  -2.4393  -2.4324
    -2.4273  -2.4157  -2.3963  -2.3872  -2.3768  -2.3634  -2.3483  -2.3261
    -2.3090  -2.2958  -2.2773  -2.2632  -2.2502  -2.2363  -2.2190  -2.2003
    -2.1905  -2.1648  -2.1392  -2.1315  -2.1124  -2.0909  -2.0825  -2.0721
    -2.0557  -2.0465  -2.0386  -2.0127  -1.9979  -1.9855  -1.9610  -1.9528
    -1.9341  -1.9232  -1.9187  -1.9047  -1.8887  -1.8801  -1.8590  -1.8439
    -1.8389  -1.8304  -1.8084  -1.7984  -1.7852  -1.7810  -1.7562  -1.7436
    -1.7259  -1.7217  -1.7103  -1.6910  -1.6862  -1.6657  -1.6599  -1.6474
    -1.6300  -1.6164  -1.6030  -1.5827  -1.5737  -1.5634  -1.5537  -1.5208
    -1.5169  -1.5065  -1.4887  -1.4824  -1.4622  -1.4526  -1.4449  -1.4301
    -1.4192  -1.4098  -1.4058  -1.3828  -1.3721  -1.3557  -1.3454  -1.3384
    -1.3308  -1.3159  -1.3019  -1.3002  -1.2968  -1.2879  -1.2754  -1.2746
    -1.2560  -1.2467  -1.2333  -1.2238  -1.2131  -1.2018  -1.1403  -1.1138
    -1.0815  -0.9987  -0.9493  -0.9164  -0.8389  -0.7148  -0.6440  -0.4259
    -0.3772  -0.1643  -0.0988   0.0017   0.2029   0.5235   0.6309   0.8534
     0.9756   1.0804   1.2634   1.3441   1.5702   1.8602   2.1460

          k =-0.0640 0.0000 0.0000 ( 36024 PWs)   bands (ev):

   -17.2571 -11.2195  -7.5859  -7.5489  -6.7380  -6.5819  -6.5602  -6.5058
    -6.4840  -6.4342  -6.3036  -5.0882  -4.8770  -4.6014  -4.5715  -4.5675
    -4.5563  -4.3396  -4.3121  -4.1617  -4.1163  -4.0978  -4.0843  -4.0745
    -4.0089  -3.9930  -3.9240  -3.8940  -3.8882  -3.8671  -3.8415  -3.7987
    -3.7554  -3.7359  -3.7260  -3.7151  -3.6745  -3.6576  -3.6348  -3.5958
    -3.5904  -3.5749  -3.5470  -3.5400  -3.4714  -3.4062  -3.3945  -3.3810
    -3.3407  -3.2960  -3.2847  -3.2496  -3.1399  -3.1058  -3.1004  -3.0870
    -3.0630  -3.0429  -3.0136  -3.0077  -2.9738  -2.9660  -2.9647  -2.9469
    -2.9272  -2.9079  -2.9063  -2.8914  -2.8832  -2.8717  -2.8559  -2.8152
    -2.7977  -2.7661  -2.7540  -2.7441  -2.7279  -2.7161  -2.7033  -2.6916
    -2.6698  -2.6539  -2.6112  -2.6013  -2.5917  -2.5830  -2.5717  -2.5493
    -2.5457  -2.5345  -2.5206  -2.4925  -2.4784  -2.4748  -2.4515  -2.4257
    -2.4201  -2.4115  -2.4065  -2.3924  -2.3650  -2.3481  -2.3039  -2.2914
    -2.2889  -2.2828  -2.2786  -2.2635  -2.2506  -2.2393  -2.2156  -2.2097
    -2.1925  -2.1851  -2.1802  -2.1534  -2.1490  -2.1363  -2.1309  -2.1261
    -2.1165  -2.0935  -2.0789  -2.0666  -2.0578  -2.0331  -2.0196  -1.9977
    -1.9784  -1.9558  -1.9480  -1.9465  -1.9405  -1.9312  -1.9299  -1.8831
    -1.8536  -1.8421  -1.8218  -1.8052  -1.7909  -1.7877  -1.7660  -1.7522
    -1.7398  -1.7237  -1.7128  -1.7071  -1.6855  -1.6748  -1.6615  -1.6507
    -1.6498  -1.6251  -1.6066  -1.5902  -1.5705  -1.5666  -1.5558  -1.5524
    -1.5366  -1.5153  -1.4999  -1.4901  -1.4544  -1.4493  -1.4258  -1.4215
    -1.4081  -1.3989  -1.3889  -1.3817  -1.3706  -1.3496  -1.3445  -1.3367
    -1.3317  -1.3243  -1.3169  -1.2985  -1.2793  -1.2700  -1.2553  -1.2533
    -1.2386  -1.2197  -1.1948  -1.1774  -1.1635  -1.0940  -1.0276  -0.9306
    -0.8452  -0.7963  -0.7700  -0.6472  -0.5564  -0.4555  -0.2684  -0.1963
    -0.1853  -0.0733   0.0003   0.1017   0.1555   0.3845   0.6327   0.7716
     0.9872   1.1412   1.2428   1.3224   1.4579   1.8057   1.9209

          k =-0.0640 0.0392 0.0000 ( 36040 PWs)   bands (ev):

   -17.2569 -11.2187  -7.3589  -7.3210  -6.7130  -6.5821  -6.5577  -6.5068
    -6.4828  -6.2481  -6.1240  -5.6255  -5.6053  -5.0518  -4.8426  -4.5975
    -4.5720  -4.3476  -4.3354  -4.2322  -4.2264  -4.1673  -4.0658  -4.0616
    -4.0280  -4.0209  -3.9965  -3.9650  -3.9196  -3.8802  -3.8717  -3.8212
    -3.7353  -3.7227  -3.6946  -3.6461  -3.6369  -3.6245  -3.5741  -3.5590
    -3.5383  -3.5176  -3.4939  -3.4561  -3.3984  -3.3740  -3.3078  -3.2813
    -3.2656  -3.2478  -3.2323  -3.2098  -3.1818  -3.1669  -3.1493  -3.1319
    -3.1035  -3.0869  -3.0529  -3.0228  -2.9965  -2.9649  -2.9503  -2.9388
    -2.9221  -2.9124  -2.8963  -2.8839  -2.8691  -2.8453  -2.8136  -2.7812
    -2.7709  -2.7663  -2.7577  -2.7465  -2.7197  -2.7085  -2.6922  -2.6695
    -2.6457  -2.5897  -2.5733  -2.5657  -2.5567  -2.5475  -2.5453  -2.5245
    -2.5149  -2.5035  -2.4985  -2.4931  -2.4788  -2.4539  -2.4417  -2.4191
    -2.4114  -2.3915  -2.3721  -2.3658  -2.3607  -2.3506  -2.3410  -2.3281
    -2.3221  -2.2911  -2.2855  -2.2688  -2.2636  -2.2443  -2.2259  -2.2128
    -2.1908  -2.1773  -2.1518  -2.1391  -2.1327  -2.1185  -2.1097  -2.0899
    -2.0787  -2.0580  -2.0341  -2.0190  -1.9922  -1.9804  -1.9700  -1.9556
    -1.9443  -1.9399  -1.9256  -1.9129  -1.9089  -1.9013  -1.8920  -1.8709
    -1.8682  -1.8482  -1.8428  -1.8228  -1.8161  -1.7943  -1.7795  -1.7710
    -1.7388  -1.7311  -1.7037  -1.6921  -1.6767  -1.6694  -1.6562  -1.6339
    -1.6180  -1.6034  -1.5958  -1.5918  -1.5747  -1.5677  -1.5568  -1.5464
    -1.5162  -1.5063  -1.4991  -1.4875  -1.4643  -1.4581  -1.4456  -1.4332
    -1.4204  -1.4093  -1.3888  -1.3821  -1.3614  -1.3443  -1.3248  -1.3204
    -1.3123  -1.3079  -1.2852  -1.2826  -1.2717  -1.2584  -1.2513  -1.2402
    -1.2374  -1.2257  -1.2104  -1.2054  -1.1985  -1.1903  -1.1723  -1.0890
    -1.0480  -1.0276  -0.9677  -0.7715  -0.6636  -0.5687  -0.2946  -0.1192
     0.0694   0.1200   0.1613   0.3557   0.4551   0.4876   0.5627   0.6977
     1.1218   1.2817   1.3306   1.3577   1.5471   1.5972   1.6041

          k =-0.0640-0.0784 0.0000 ( 36100 PWs)   bands (ev):

   -17.2568 -11.2180  -6.8158  -6.7165  -6.6908  -6.6774  -6.5766  -6.5579
    -6.5262  -6.4679  -6.4446  -5.6996  -5.6018  -5.5720  -5.5008  -4.5942
    -4.4133  -4.3911  -4.3703  -4.3356  -4.3114  -4.2992  -4.2719  -4.1004
    -3.9975  -3.9812  -3.9621  -3.9267  -3.9133  -3.8910  -3.8861  -3.8371
    -3.7777  -3.7411  -3.6792  -3.6202  -3.6014  -3.5756  -3.5299  -3.5053
    -3.4903  -3.4681  -3.4534  -3.4179  -3.4026  -3.3957  -3.3672  -3.3515
    -3.3167  -3.2822  -3.2682  -3.2124  -3.1845  -3.1068  -3.0839  -3.0514
    -3.0305  -3.0203  -3.0071  -3.0012  -2.9913  -2.9880  -2.9781  -2.9712
    -2.9597  -2.9536  -2.9407  -2.9175  -2.8713  -2.8073  -2.7850  -2.7684
    -2.7527  -2.7197  -2.7009  -2.6838  -2.6689  -2.6524  -2.6364  -2.6116
    -2.5956  -2.5888  -2.5741  -2.5630  -2.5381  -2.5179  -2.5137  -2.5115
    -2.4970  -2.4891  -2.4843  -2.4781  -2.4558  -2.4428  -2.4170  -2.3910
    -2.3866  -2.3696  -2.3604  -2.3550  -2.3469  -2.3343  -2.3245  -2.3109
    -2.3102  -2.3048  -2.2970  -2.2890  -2.2695  -2.2568  -2.2397  -2.2343
    -2.2017  -2.1991  -2.1857  -2.1785  -2.1403  -2.1144  -2.1042  -2.0900
    -2.0849  -2.0687  -2.0615  -2.0568  -2.0407  -2.0348  -2.0119  -1.9821
    -1.9758  -1.9615  -1.9485  -1.9367  -1.9231  -1.8951  -1.8895  -1.8568
    -1.8487  -1.8068  -1.7949  -1.7821  -1.7669  -1.7593  -1.7358  -1.7273
    -1.7150  -1.6764  -1.6541  -1.6412  -1.6337  -1.6276  -1.6180  -1.6083
    -1.5990  -1.5802  -1.5709  -1.5680  -1.5455  -1.5231  -1.5173  -1.5119
    -1.5064  -1.4862  -1.4792  -1.4783  -1.4396  -1.4302  -1.4260  -1.4128
    -1.3954  -1.3923  -1.3840  -1.3631  -1.3569  -1.3449  -1.3374  -1.3299
    -1.3229  -1.3201  -1.2985  -1.2818  -1.2663  -1.2630  -1.2544  -1.2436
    -1.2273  -1.2164  -1.2065  -1.2013  -1.1863  -1.1675  -1.1635  -1.1548
    -1.1350  -1.1011  -1.0813  -1.0469  -0.9168  -0.7050  -0.5655  -0.2538
     0.0123   0.0909   0.2279   0.3775   0.4614   0.4805   0.6656   0.7794
     0.9097   0.9440   1.3533   1.6529   1.6897   1.7410   1.8211

     the Fermi energy is     0.3631 ev

!    total energy              =   -4330.03422541 Ry
     Harris-Foulkes estimate   =   -4330.03421248 Ry
     estimated scf accuracy    <       0.00000659 Ry

     The total energy is the sum of the following terms:

     one-electron contribution =  -48522.30338633 Ry
     hartree contribution      =   24688.56680633 Ry
     xc contribution           =   -1494.57385577 Ry
     ewald contribution        =   20998.27663601 Ry
     electric field correction =       0.00022695 Ry
     smearing contrib. (-TS)   =      -0.00065260 Ry

     convergence has been achieved in  56 iterations

     Forces acting on atoms (Ry/au):


     negative rho (up, down):  3.644E-03 0.000E+00
     atom    1 type  1   force =    -0.01352213    0.00611569   -0.01168246
     atom    2 type  2   force =     0.02572355    0.00723872   -0.00355990
     atom    3 type  2   force =    -0.02191840    0.00470601    0.04138381
     atom    4 type  2   force =     0.00207886    0.01209728    0.00827611
     atom    5 type  2   force =    -0.00107792   -0.00034363   -0.00166020
     atom    6 type  2   force =     0.00022241    0.00307626    0.00094822
     atom    7 type  2   force =    -0.00358553    0.00120268   -0.00184586
     atom    8 type  2   force =    -0.00062193    0.00047939   -0.00224597
     atom    9 type  2   force =     0.00212030   -0.00095791   -0.00096959
     atom   10 type  2   force =     0.00666059   -0.00128697   -0.00054908
     atom   11 type  2   force =    -0.00202352   -0.00051993   -0.00773842
     atom   12 type  2   force =    -0.00234016   -0.00060051    0.00735209
     atom   13 type  2   force =     0.00023213   -0.00057358    0.00090544
     atom   14 type  2   force =     0.00046482    0.00157106    0.00313523
     atom   15 type  2   force =    -0.00102970   -0.00014271    0.00107135
     atom   16 type  2   force =    -0.00212455   -0.00015995    0.00075297
     atom   17 type  2   force =     0.00073262   -0.00057772    0.00107222
     atom   18 type  2   force =     0.00117458   -0.00057662   -0.00118540
     atom   19 type  2   force =     0.00071142    0.00229363    0.00223058
     atom   20 type  2   force =     0.00132298    0.00109093    0.00097696
     atom   21 type  2   force =     0.00101566    0.00226722    0.00101392
     atom   22 type  2   force =     0.00018587    0.00270173   -0.00175551
     atom   23 type  2   force =    -0.00154650    0.00387639   -0.00056097
     atom   24 type  2   force =     0.00163626    0.00304865   -0.00137291
     atom   25 type  2   force =     0.00000395   -0.00383234   -0.00771779
     atom   26 type  2   force =     0.00017362   -0.00439955   -0.00791116
     atom   27 type  2   force =     0.00082970   -0.00359857   -0.00821251
     atom   28 type  2   force =    -0.00089364   -0.00200888   -0.00796775
     atom   29 type  2   force =    -0.00027737   -0.00207409   -0.00475816
     atom   30 type  2   force =     0.00083964   -0.00146789   -0.00485758
     atom   31 type  2   force =     0.00074856   -0.00215629    0.00210491
     atom   32 type  2   force =    -0.00064852   -0.00224855    0.00194114
     atom   33 type  2   force =     0.00006610   -0.00325014    0.00212942
     atom   34 type  2   force =    -0.00028746    0.00352708    0.01428603
     atom   35 type  2   force =     0.00085304    0.00407230    0.01325753
     atom   36 type  2   force =    -0.00066849    0.00384792    0.01298077
     atom   37 type  3   force =    -0.01017775   -0.02708587    0.01365023
     atom   38 type  4   force =     0.00233324   -0.01877332   -0.01314436
     atom   39 type  5   force =     0.00221688    0.00978318   -0.01800957
     atom   40 type  5   force =     0.00105618    0.00480913   -0.01682531
     atom   41 type  5   force =     0.00934065   -0.00117023   -0.00493850

     Total force =     0.084903     Total SCF correction =     0.010169
     SCF correction compared to forces is large: reduce conv_thr to get better values
 !ASE
     Check: negative starting charge=   -0.003170
     NEW-OLD atomic charge density approx. for the potential

     Check: negative/imaginary core charge=   -0.000012    0.000000
     Check: negative starting charge=   -0.003173

     negative rho (up, down):  3.656E-03 0.000E+00
 
     Adding external electric field

     Computed dipole along edir(3) : 
        Dipole               -0.4159 Ry au,         -1.0572 Debye
        Dipole field         -0.0005 Ry au
 
        Potential amp.        0.0574 Ry
        Total length         52.5607 bohr
 

     total cpu time spent up to now is    10861.1 secs

     per-process dynamical memory:   319.8 Mb

     Self-consistent Calculation

     iteration #  1     ecut=    36.75 Ry     beta=0.10
     Davidson diagonalization with overlap
     ethr =  2.32E-09,  avg # of iterations =  8.4

     negative rho (up, down):  3.659E-03 0.000E+00
 
     Adding external electric field

     Computed dipole along edir(3) : 
        Dipole               -0.4158 Ry au,         -1.0568 Debye
        Dipole field         -0.0005 Ry au
 
        Potential amp.        0.0573 Ry
        Total length         52.5607 bohr
 

     total cpu time spent up to now is    11357.6 secs

     total energy              =   -4330.03695409 Ry
     Harris-Foulkes estimate   =   -4330.03696552 Ry
     estimated scf accuracy    <       0.00107043 Ry

     iteration #  2     ecut=    36.75 Ry     beta=0.10
     Davidson diagonalization with overlap
     ethr =  2.61E-07,  avg # of iterations =  1.0

     negative rho (up, down):  3.703E-03 0.000E+00
 
     Adding external electric field

     Computed dipole along edir(3) : 
        Dipole               -0.4146 Ry au,         -1.0537 Debye
        Dipole field         -0.0005 Ry au
 
        Potential amp.        0.0572 Ry
        Total length         52.5607 bohr
 

     total cpu time spent up to now is    11542.2 secs

     total energy              =   -4330.03689049 Ry
     Harris-Foulkes estimate   =   -4330.03695615 Ry
     estimated scf accuracy    <       0.00085920 Ry

     iteration #  3     ecut=    36.75 Ry     beta=0.10
     Davidson diagonalization with overlap
     ethr =  2.10E-07,  avg # of iterations =  2.0

     negative rho (up, down):  3.696E-03 0.000E+00
 
     Adding external electric field

     Computed dipole along edir(3) : 
        Dipole               -0.4143 Ry au,         -1.0529 Debye
        Dipole field         -0.0005 Ry au
 
        Potential amp.        0.0571 Ry
[...]
    -1.1375  -1.1175  -1.0942  -1.0793  -1.0540  -1.0511  -1.0021  -0.7649
    -0.6470  -0.4834  -0.2300  -0.1094   0.0819   0.1739   0.3163   0.4875
     0.7740   1.2503   1.6670   2.1148   2.1274   2.2688   2.5960

          k = 0.0320 0.0000 0.0000 ( 36032 PWs)   bands (ev):

   -17.2795 -11.4211  -7.9438  -6.8142  -6.7619  -6.5915  -6.5640  -6.5428
    -6.5042  -6.4884  -5.6646  -5.2634  -4.8210  -4.8083  -4.7665  -4.6780
    -4.5210  -4.4133  -4.1947  -4.1651  -4.1209  -4.1033  -4.0521  -4.0172
    -4.0032  -3.9896  -3.8732  -3.8525  -3.7211  -3.7105  -3.6973  -3.6816
    -3.6686  -3.6518  -3.6339  -3.6207  -3.6102  -3.5884  -3.5787  -3.5358
    -3.5098  -3.4744  -3.4566  -3.4278  -3.3616  -3.3476  -3.3142  -3.2896
    -3.2662  -3.2587  -3.1824  -3.1619  -3.1182  -3.0648  -3.0377  -2.9998
    -2.9824  -2.9666  -2.9327  -2.8977  -2.8879  -2.8772  -2.8739  -2.8644
    -2.8541  -2.8440  -2.8288  -2.8214  -2.7999  -2.7763  -2.7598  -2.7210
    -2.6985  -2.6781  -2.6629  -2.6461  -2.6325  -2.6124  -2.6056  -2.5825
    -2.5723  -2.5601  -2.5471  -2.5262  -2.5155  -2.4932  -2.4801  -2.4669
    -2.4439  -2.4285  -2.4235  -2.4151  -2.4115  -2.3991  -2.3918  -2.3632
    -2.3508  -2.3375  -2.3340  -2.3155  -2.3031  -2.3010  -2.2757  -2.2547
    -2.2464  -2.2348  -2.2246  -2.2180  -2.1977  -2.1898  -2.1784  -2.1599
    -2.1466  -2.1346  -2.1137  -2.0978  -2.0926  -2.0655  -2.0459  -2.0360
    -2.0145  -1.9997  -1.9973  -1.9802  -1.9750  -1.9461  -1.9313  -1.9182
    -1.9099  -1.8882  -1.8688  -1.8606  -1.8501  -1.8427  -1.8155  -1.8016
    -1.7943  -1.7700  -1.7514  -1.7451  -1.7312  -1.7155  -1.6969  -1.6882
    -1.6720  -1.6670  -1.6475  -1.6253  -1.6086  -1.6047  -1.5831  -1.5746
    -1.5652  -1.5510  -1.5195  -1.5107  -1.4987  -1.4857  -1.4720  -1.4584
    -1.4527  -1.4305  -1.4138  -1.4012  -1.3937  -1.3865  -1.3726  -1.3472
    -1.3405  -1.3300  -1.3187  -1.3148  -1.3101  -1.3043  -1.2971  -1.2809
    -1.2766  -1.2678  -1.2595  -1.2539  -1.2405  -1.2385  -1.2213  -1.2167
    -1.2050  -1.1913  -1.1838  -1.1621  -1.1363  -1.0785  -1.0611  -1.0271
    -0.9079  -0.8132  -0.7701  -0.7357  -0.6154  -0.5013  -0.4399  -0.3402
    -0.2223  -0.1914   0.0960   0.3636   0.4012   0.5269   0.7005   0.7745
     1.0021   1.3246   1.3994   1.4289   1.6936   1.7866   1.9724

          k = 0.0320 0.0392 0.0000 ( 36036 PWs)   bands (ev):

   -17.2794 -11.4203  -7.7073  -6.6975  -6.6131  -6.5725  -6.5517  -6.5186
    -6.4716  -6.4297  -5.9184  -5.5120  -5.1893  -4.9698  -4.8288  -4.7341
    -4.6418  -4.5319  -4.4315  -4.2330  -4.1878  -4.1449  -4.1289  -4.1231
    -4.0787  -4.0216  -3.8966  -3.8647  -3.8110  -3.7327  -3.6862  -3.6683
    -3.6553  -3.6160  -3.5886  -3.5650  -3.5495  -3.5271  -3.5142  -3.4694
    -3.4504  -3.4287  -3.3848  -3.3346  -3.3123  -3.2889  -3.2605  -3.2468
    -3.2103  -3.2003  -3.1746  -3.1467  -3.1269  -3.1077  -3.0869  -3.0583
    -3.0228  -2.9916  -2.9754  -2.9510  -2.9236  -2.9061  -2.8894  -2.8761
    -2.8618  -2.8575  -2.8150  -2.8018  -2.7489  -2.7246  -2.7079  -2.6931
    -2.6710  -2.6541  -2.6438  -2.6333  -2.6195  -2.6046  -2.5908  -2.5724
    -2.5541  -2.5355  -2.5284  -2.4994  -2.4781  -2.4713  -2.4591  -2.4542
    -2.4442  -2.4342  -2.4224  -2.4042  -2.3983  -2.3941  -2.3752  -2.3657
    -2.3498  -2.3459  -2.3377  -2.3335  -2.3167  -2.2910  -2.2782  -2.2654
    -2.2445  -2.2347  -2.2230  -2.2113  -2.1901  -2.1673  -2.1564  -2.1316
    -2.1281  -2.1026  -2.0844  -2.0714  -2.0492  -2.0285  -2.0133  -1.9978
    -1.9821  -1.9690  -1.9645  -1.9360  -1.9247  -1.9185  -1.8953  -1.8875
    -1.8740  -1.8694  -1.8474  -1.8365  -1.8301  -1.8085  -1.8029  -1.7864
    -1.7738  -1.7672  -1.7565  -1.7324  -1.7121  -1.6997  -1.6929  -1.6864
    -1.6665  -1.6552  -1.6488  -1.6361  -1.6226  -1.6090  -1.5990  -1.5775
    -1.5707  -1.5454  -1.5360  -1.5231  -1.5051  -1.4899  -1.4743  -1.4626
    -1.4543  -1.4454  -1.4287  -1.4180  -1.4072  -1.3854  -1.3758  -1.3720
    -1.3546  -1.3455  -1.3324  -1.3153  -1.3059  -1.2982  -1.2840  -1.2792
    -1.2611  -1.2541  -1.2423  -1.2375  -1.2332  -1.2238  -1.2172  -1.2058
    -1.1983  -1.1826  -1.1708  -1.1556  -1.1466  -1.1324  -1.0840  -1.0603
    -1.0462  -0.9557  -0.8687  -0.8261  -0.8027  -0.6622  -0.6206  -0.3548
    -0.2855  -0.1037  -0.0429   0.0367   0.2817   0.5762   0.7149   0.9261
     0.9940   1.1909   1.3354   1.3826   1.6234   1.9118   2.2244

          k = 0.0320-0.0784 0.0000 ( 35966 PWs)   bands (ev):

   -17.2793 -11.4195  -7.0383  -7.0193  -6.6533  -6.5745  -6.5494  -6.5219
    -6.4890  -5.9567  -5.9063  -5.8807  -5.8308  -5.0585  -4.9420  -4.6848
    -4.6381  -4.6134  -4.5122  -4.4410  -4.4219  -4.2548  -4.1336  -4.0939
    -4.0732  -4.0375  -3.9422  -3.8451  -3.7742  -3.7128  -3.6720  -3.6470
    -3.6403  -3.5914  -3.5691  -3.5496  -3.5192  -3.4713  -3.4452  -3.4265
    -3.4234  -3.3958  -3.3861  -3.3805  -3.3640  -3.3340  -3.3118  -3.2662
    -3.2439  -3.1967  -3.1479  -3.1220  -3.1029  -3.0744  -3.0498  -3.0406
    -3.0134  -3.0058  -2.9743  -2.9586  -2.9452  -2.9059  -2.8747  -2.8562
    -2.8514  -2.8185  -2.8084  -2.7683  -2.7546  -2.7434  -2.7150  -2.6841
    -2.6644  -2.6544  -2.6362  -2.5943  -2.5899  -2.5614  -2.5499  -2.5379
    -2.5342  -2.5223  -2.5111  -2.5017  -2.4791  -2.4674  -2.4488  -2.4332
    -2.4289  -2.4062  -2.4006  -2.3895  -2.3854  -2.3773  -2.3672  -2.3443
    -2.3269  -2.3129  -2.3092  -2.3040  -2.2937  -2.2872  -2.2827  -2.2691
    -2.2543  -2.2507  -2.2303  -2.2177  -2.1876  -2.1806  -2.1673  -2.1370
    -2.1101  -2.0861  -2.0735  -2.0602  -2.0302  -2.0237  -2.0161  -1.9974
    -1.9922  -1.9770  -1.9668  -1.9613  -1.9441  -1.9269  -1.9150  -1.9012
    -1.8880  -1.8662  -1.8563  -1.8389  -1.8231  -1.8011  -1.7812  -1.7727
    -1.7545  -1.7433  -1.7307  -1.7171  -1.6988  -1.6853  -1.6698  -1.6564
    -1.6498  -1.6420  -1.6356  -1.6329  -1.6067  -1.5799  -1.5647  -1.5569
    -1.5332  -1.5267  -1.5112  -1.4956  -1.4796  -1.4591  -1.4522  -1.4433
    -1.4329  -1.4253  -1.4109  -1.4069  -1.4018  -1.3729  -1.3626  -1.3509
    -1.3329  -1.3278  -1.3216  -1.3144  -1.3074  -1.2940  -1.2905  -1.2764
    -1.2697  -1.2577  -1.2478  -1.2422  -1.2292  -1.2155  -1.2100  -1.1976
    -1.1856  -1.1769  -1.1698  -1.1630  -1.1570  -1.1329  -1.1250  -1.1008
    -1.0874  -1.0786  -1.0519  -0.9213  -0.8934  -0.7352  -0.7049  -0.6252
    -0.5007  -0.3968  -0.2411  -0.0026   0.0841   0.3815   0.8153   0.9048
     1.0692   1.2287   1.4112   1.6279   2.2275   2.3909   2.5566

          k = 0.0320-0.0392 0.0000 ( 36036 PWs)   bands (ev):

   -17.2794 -11.4203  -7.7084  -6.7083  -6.6016  -6.5798  -6.5447  -6.5179
    -6.4646  -6.4309  -5.9209  -5.5013  -5.2150  -4.9634  -4.8301  -4.7234
    -4.6443  -4.5299  -4.4347  -4.2245  -4.1853  -4.1484  -4.1295  -4.1073
    -4.0952  -4.0208  -3.9336  -3.8589  -3.8015  -3.7110  -3.6885  -3.6717
    -3.6453  -3.6262  -3.5950  -3.5606  -3.5494  -3.5316  -3.5086  -3.4877
    -3.4342  -3.4187  -3.3918  -3.3419  -3.3233  -3.3074  -3.2731  -3.2318
    -3.2195  -3.1832  -3.1644  -3.1619  -3.1214  -3.1078  -3.0907  -3.0482
    -3.0313  -2.9943  -2.9691  -2.9514  -2.9125  -2.9064  -2.8963  -2.8836
    -2.8565  -2.8202  -2.8153  -2.7953  -2.7574  -2.7373  -2.7095  -2.6898
    -2.6753  -2.6631  -2.6489  -2.6399  -2.6142  -2.5956  -2.5832  -2.5733
    -2.5542  -2.5372  -2.5227  -2.5051  -2.4870  -2.4708  -2.4633  -2.4528
    -2.4487  -2.4402  -2.4255  -2.4053  -2.3960  -2.3815  -2.3656  -2.3622
    -2.3536  -2.3445  -2.3386  -2.3194  -2.3129  -2.2851  -2.2797  -2.2598
    -2.2398  -2.2307  -2.2114  -2.1941  -2.1873  -2.1811  -2.1642  -2.1429
    -2.1220  -2.1074  -2.0773  -2.0716  -2.0443  -2.0317  -2.0199  -2.0113
    -1.9846  -1.9729  -1.9676  -1.9449  -1.9327  -1.9230  -1.8975  -1.8901
    -1.8739  -1.8647  -1.8475  -1.8386  -1.8363  -1.8228  -1.7961  -1.7830
    -1.7785  -1.7598  -1.7422  -1.7311  -1.7182  -1.7118  -1.7009  -1.6747
    -1.6621  -1.6551  -1.6467  -1.6291  -1.6217  -1.6006  -1.5902  -1.5807
    -1.5639  -1.5496  -1.5339  -1.5196  -1.5122  -1.4993  -1.4857  -1.4551
    -1.4486  -1.4439  -1.4245  -1.4200  -1.3946  -1.3909  -1.3821  -1.3739
    -1.3581  -1.3478  -1.3347  -1.3180  -1.3051  -1.3032  -1.2845  -1.2732
    -1.2605  -1.2553  -1.2391  -1.2355  -1.2313  -1.2232  -1.2147  -1.2085
    -1.1915  -1.1813  -1.1715  -1.1616  -1.1521  -1.1401  -1.0775  -1.0505
    -1.0259  -0.9537  -0.9100  -0.8499  -0.7756  -0.6641  -0.5423  -0.4002
    -0.3172  -0.1030  -0.0619   0.0518   0.2967   0.5986   0.6801   0.8972
     1.0400   1.1630   1.3352   1.4103   1.6524   1.9227   2.2084

          k =-0.0640 0.0000 0.0000 ( 36024 PWs)   bands (ev):

   -17.2794 -11.4216  -7.4920  -7.4632  -6.6769  -6.5689  -6.5495  -6.5171
    -6.4941  -6.3756  -6.2277  -5.0395  -4.8110  -4.6361  -4.5097  -4.5024
    -4.4830  -4.4807  -4.4696  -4.1024  -4.0314  -4.0220  -4.0027  -3.9981
    -3.9430  -3.9118  -3.8503  -3.8274  -3.8075  -3.7972  -3.7553  -3.7137
    -3.6816  -3.6704  -3.6528  -3.6389  -3.5887  -3.5790  -3.5618  -3.5427
    -3.5156  -3.4904  -3.4816  -3.4549  -3.4001  -3.3574  -3.3237  -3.3124
    -3.2793  -3.2143  -3.2086  -3.1704  -3.0949  -3.0452  -3.0115  -3.0085
    -2.9894  -2.9620  -2.9602  -2.9266  -2.9045  -2.8923  -2.8792  -2.8694
    -2.8581  -2.8392  -2.8371  -2.8138  -2.8080  -2.8049  -2.7864  -2.7540
    -2.7251  -2.6996  -2.6935  -2.6655  -2.6595  -2.6482  -2.6364  -2.6097
    -2.5955  -2.5766  -2.5353  -2.5285  -2.5140  -2.5047  -2.5022  -2.4817
    -2.4768  -2.4655  -2.4487  -2.4350  -2.4119  -2.4010  -2.3919  -2.3750
    -2.3665  -2.3470  -2.3225  -2.3181  -2.3001  -2.2921  -2.2787  -2.2384
    -2.2313  -2.2283  -2.2198  -2.2027  -2.1885  -2.1599  -2.1528  -2.1430
    -2.1346  -2.1168  -2.1132  -2.1003  -2.0822  -2.0675  -2.0634  -2.0543
    -2.0531  -2.0341  -2.0256  -2.0047  -1.9953  -1.9631  -1.9447  -1.9368
    -1.9245  -1.8989  -1.8852  -1.8779  -1.8723  -1.8658  -1.8587  -1.8212
    -1.8053  -1.7789  -1.7709  -1.7388  -1.7322  -1.7146  -1.6992  -1.6814
    -1.6654  -1.6548  -1.6411  -1.6365  -1.6123  -1.6078  -1.6057  -1.5904
    -1.5806  -1.5515  -1.5437  -1.5292  -1.5091  -1.4973  -1.4955  -1.4834
    -1.4738  -1.4567  -1.4400  -1.4191  -1.3871  -1.3791  -1.3643  -1.3588
    -1.3445  -1.3375  -1.3325  -1.3131  -1.3087  -1.2883  -1.2850  -1.2739
    -1.2691  -1.2650  -1.2539  -1.2376  -1.2178  -1.2122  -1.1902  -1.1864
    -1.1777  -1.1541  -1.1306  -1.1154  -1.0989  -1.0169  -0.9646  -0.8481
    -0.8005  -0.7425  -0.6880  -0.6049  -0.4786  -0.4616  -0.2157  -0.1289
    -0.1197  -0.0085   0.0691   0.1773   0.2172   0.4583   0.7065   0.8254
     1.0401   1.2047   1.3060   1.3878   1.5078   1.8797   1.9924

          k =-0.0640 0.0392 0.0000 ( 36040 PWs)   bands (ev):

   -17.2793 -11.4208  -7.2650  -7.2359  -6.6582  -6.5694  -6.5475  -6.5206
    -6.4954  -6.1811  -6.0454  -5.5385  -5.5178  -5.0045  -4.7787  -4.6383
    -4.5352  -4.4857  -4.4781  -4.1756  -4.1450  -4.1161  -3.9843  -3.9812
    -3.9623  -3.9387  -3.9212  -3.8872  -3.8500  -3.7988  -3.7838  -3.7570
    -3.6771  -3.6463  -3.6188  -3.5802  -3.5600  -3.5476  -3.5063  -3.4873
    -3.4583  -3.4439  -3.4237  -3.3823  -3.3266  -3.2948  -3.2431  -3.2032
    -3.1874  -3.1678  -3.1613  -3.1474  -3.1019  -3.0866  -3.0722  -3.0581
    -3.0385  -3.0189  -2.9909  -2.9474  -2.9325  -2.8946  -2.8807  -2.8679
    -2.8505  -2.8452  -2.8198  -2.8084  -2.7945  -2.7676  -2.7496  -2.7217
    -2.6971  -2.6933  -2.6833  -2.6682  -2.6491  -2.6340  -2.6064  -2.5931
    -2.5625  -2.5441  -2.5176  -2.4997  -2.4941  -2.4769  -2.4751  -2.4541
    -2.4414  -2.4355  -2.4275  -2.4203  -2.4121  -2.3959  -2.3809  -2.3563
    -2.3451  -2.3277  -2.3175  -2.2957  -2.2916  -2.2875  -2.2732  -2.2618
    -2.2540  -2.2308  -2.2218  -2.2175  -2.1951  -2.1842  -2.1665  -2.1541
    -2.1375  -2.1085  -2.0960  -2.0743  -2.0668  -2.0569  -2.0419  -2.0219
    -2.0073  -1.9881  -1.9738  -1.9625  -1.9469  -1.9141  -1.9058  -1.8971
    -1.8863  -1.8724  -1.8564  -1.8478  -1.8401  -1.8344  -1.8214  -1.8132
    -1.8001  -1.7860  -1.7737  -1.7603  -1.7461  -1.7296  -1.7223  -1.7069
    -1.6890  -1.6674  -1.6453  -1.6252  -1.6141  -1.6013  -1.5890  -1.5734
    -1.5526  -1.5449  -1.5337  -1.5263  -1.5067  -1.4975  -1.4906  -1.4731
    -1.4546  -1.4397  -1.4300  -1.4270  -1.4003  -1.3940  -1.3810  -1.3668
    -1.3578  -1.3471  -1.3243  -1.3133  -1.2973  -1.2850  -1.2655  -1.2581
    -1.2523  -1.2421  -1.2259  -1.2178  -1.2090  -1.2009  -1.1857  -1.1770
    -1.1740  -1.1634  -1.1468  -1.1398  -1.1355  -1.1257  -1.1096  -1.0205
    -0.9850  -0.9661  -0.8937  -0.7228  -0.5963  -0.5446  -0.2510  -0.0484
     0.1427   0.1877   0.2264   0.3982   0.5222   0.5532   0.6367   0.7579
     1.1795   1.3501   1.3993   1.4401   1.6022   1.6647   1.7053

          k =-0.0640-0.0784 0.0000 ( 36100 PWs)   bands (ev):

   -17.2792 -11.4200  -6.7393  -6.6466  -6.6327  -6.6002  -6.5578  -6.5334
    -6.4745  -6.4572  -6.4361  -5.6420  -5.5243  -5.4866  -5.4208  -4.6410
    -4.5810  -4.4641  -4.3243  -4.3008  -4.2744  -4.2341  -4.2210  -4.0330
    -3.9191  -3.8998  -3.8964  -3.8484  -3.8316  -3.8126  -3.8017  -3.7758
    -3.6999  -3.6689  -3.6213  -3.5516  -3.5360  -3.4994  -3.4554  -3.4281
    -3.4130  -3.4092  -3.3777  -3.3402  -3.3254  -3.3026  -3.2949  -3.2757
    -3.2398  -3.2007  -3.1800  -3.1513  -3.1104  -3.0349  -3.0234  -2.9850
    -2.9568  -2.9507  -2.9356  -2.9233  -2.9189  -2.9088  -2.9012  -2.8980
    -2.8854  -2.8803  -2.8663  -2.8645  -2.8011  -2.7362  -2.7204  -2.7043
    -2.6762  -2.6469  -2.6254  -2.6091  -2.5985  -2.5805  -2.5612  -2.5437
    -2.5356  -2.5179  -2.5015  -2.4935  -2.4672  -2.4498  -2.4465  -2.4428
    -2.4410  -2.4283  -2.4143  -2.4055  -2.3878  -2.3820  -2.3647  -2.3341
    -2.3194  -2.3073  -2.2918  -2.2837  -2.2792  -2.2686  -2.2604  -2.2529
    -2.2457  -2.2408  -2.2281  -2.2149  -2.2071  -2.1935  -2.1850  -2.1668
    -2.1486  -2.1284  -2.1258  -2.1189  -2.0784  -2.0504  -2.0475  -2.0282
    -2.0122  -2.0074  -1.9994  -1.9953  -1.9707  -1.9679  -1.9526  -1.9153
    -1.9017  -1.8888  -1.8850  -1.8722  -1.8659  -1.8432  -1.8358  -1.8015
    -1.7698  -1.7406  -1.7269  -1.7200  -1.6979  -1.6878  -1.6740  -1.6619
    -1.6551  -1.6161  -1.5962  -1.5783  -1.5686  -1.5625  -1.5539  -1.5436
    -1.5303  -1.5246  -1.5054  -1.5026  -1.4863  -1.4578  -1.4532  -1.4487
    -1.4437  -1.4321  -1.4214  -1.4119  -1.3769  -1.3670  -1.3609  -1.3423
    -1.3351  -1.3280  -1.3181  -1.2967  -1.2908  -1.2800  -1.2713  -1.2648
    -1.2592  -1.2499  -1.2345  -1.2191  -1.2069  -1.2044  -1.1961  -1.1834
    -1.1621  -1.1528  -1.1464  -1.1365  -1.1218  -1.1114  -1.1088  -1.0937
    -1.0742  -1.0402  -1.0181  -0.9761  -0.8394  -0.6500  -0.5149  -0.2374
     0.0882   0.1542   0.2680   0.4410   0.5270   0.5505   0.7437   0.8715
     0.9759   1.0094   1.4529   1.7071   1.7674   1.8297   1.8688

     the Fermi energy is     0.4235 ev

!    total energy              =   -4330.06701482 Ry
     Harris-Foulkes estimate   =   -4330.06702274 Ry
     estimated scf accuracy    <       0.00000093 Ry

     The total energy is the sum of the following terms:

     one-electron contribution =  -48357.12909955 Ry
     hartree contribution      =   24606.72158302 Ry
     xc contribution           =   -1494.57408519 Ry
     ewald contribution        =   20914.91493071 Ry
     electric field correction =       0.00013458 Ry
     smearing contrib. (-TS)   =      -0.00047840 Ry

     convergence has been achieved in   7 iterations

     Forces acting on atoms (Ry/au):


     negative rho (up, down):  3.586E-03 0.000E+00
     atom    1 type  1   force =    -0.00317129    0.00567134   -0.00215047
     atom    2 type  2   force =     0.00255419    0.00497320   -0.00166230
     atom    3 type  2   force =    -0.00087852    0.00082325   -0.00041337
     atom    4 type  2   force =    -0.00082115    0.00043607    0.00594157
     atom    5 type  2   force =     0.00050937    0.00117030    0.00081114
     atom    6 type  2   force =    -0.00175813    0.00109235    0.00129809
     atom    7 type  2   force =     0.00054234    0.00243113    0.00113735
     atom    8 type  2   force =    -0.00105238    0.00208723    0.00128402
     atom    9 type  2   force =    -0.00022199   -0.00007572    0.00197608
     atom   10 type  2   force =    -0.00017178    0.00146110   -0.00016791
     atom   11 type  2   force =    -0.00029118    0.00067309    0.00278752
     atom   12 type  2   force =    -0.00126553    0.00057296    0.00196314
     atom   13 type  2   force =     0.00027587    0.00114471    0.00187154
     atom   14 type  2   force =    -0.00068377    0.00043240    0.00119616
     atom   15 type  2   force =     0.00028520   -0.00020449    0.00088756
     atom   16 type  2   force =    -0.00018320    0.00037642    0.00031933
     atom   17 type  2   force =     0.00005244    0.00017385    0.00073889
     atom   18 type  2   force =    -0.00008345   -0.00035364    0.00094451
     atom   19 type  2   force =    -0.00021691    0.00149673    0.00624054
     atom   20 type  2   force =     0.00111048    0.00087115    0.00030615
     atom   21 type  2   force =     0.00235618    0.00167909    0.00309513
     atom   22 type  2   force =     0.00051749    0.00243527   -0.00013820
     atom   23 type  2   force =    -0.00163322    0.00373929    0.00115463
     atom   24 type  2   force =     0.00168910    0.00278271   -0.00019834
     atom   25 type  2   force =     0.00020599   -0.00376782   -0.00737145
     atom   26 type  2   force =     0.00028794   -0.00446008   -0.00645795
     atom   27 type  2   force =     0.00062052   -0.00363463   -0.00753284
     atom   28 type  2   force =    -0.00080041   -0.00252229   -0.00837272
     atom   29 type  2   force =    -0.00028750   -0.00237555   -0.00539664
     atom   30 type  2   force =     0.00093969   -0.00188993   -0.00522522
     atom   31 type  2   force =     0.00072677   -0.00162540    0.00139929
     atom   32 type  2   force =    -0.00036554   -0.00169817    0.00123042
     atom   33 type  2   force =    -0.00020405   -0.00282545    0.00123296
     atom   34 type  2   force =    -0.00006067    0.00339886    0.01340595
     atom   35 type  2   force =     0.00097112    0.00418712    0.01213432
     atom   36 type  2   force =    -0.00087556    0.00395949    0.01172543
     atom   37 type  3   force =    -0.00557303   -0.02084933   -0.00716067
     atom   38 type  4   force =     0.00163472   -0.00320625   -0.00624821
     atom   39 type  5   force =     0.00214293    0.00175257   -0.00865910
     atom   40 type  5   force =     0.00270431    0.00000736   -0.00680262
     atom   41 type  5   force =     0.00047264   -0.00034029   -0.00112369

     Total force =     0.042999     Total SCF correction =     0.004991
     SCF correction compared to forces is large: reduce conv_thr to get better values
 !ASE
     Check: negative starting charge=   -0.003203
     NEW-OLD atomic charge density approx. for the potential

     Check: negative/imaginary core charge=   -0.000012    0.000000
     Check: negative starting charge=   -0.003204

     negative rho (up, down):  3.600E-03 0.000E+00
 
     Adding external electric field

     Computed dipole along edir(3) : 
        Dipole               -0.3203 Ry au,         -0.8141 Debye
        Dipole field         -0.0004 Ry au
 
        Potential amp.        0.0442 Ry
        Total length         52.5607 bohr
 

     total cpu time spent up to now is    53644.3 secs

     per-process dynamical memory:   319.8 Mb

     Self-consistent Calculation

     iteration #  1     ecut=    36.75 Ry     beta=0.10
     Davidson diagonalization with overlap
     ethr =  1.92E-09,  avg # of iterations =  8.4

     negative rho (up, down):  3.592E-03 0.000E+00
 
     Adding external electric field

     Computed dipole along edir(3) : 
        Dipole               -0.3204 Ry au,         -0.8144 Debye
        Dipole field         -0.0004 Ry au
 
        Potential amp.        0.0442 Ry
        Total length         52.5607 bohr
 
