  49  49   0   0
  0.1898781E+02  0.7654997E-09  0.7654997E-09  0.1833370E-08  0.2500000E-15
  1.000000000000000E-004
  CAR 
 unknown system                          
      8.81285398    -12.57724357  301      0.22604913      1.00000000
    -12.577  0.0000E+00  0.0000E+00
    -12.506  0.0000E+00  0.0000E+00
    -12.435 -0.3520E-32 -0.2510E-33
    -12.363 -0.4007E-27 -0.2857E-28
    -12.292 -0.1636E-22 -0.1167E-23
    -12.221 -0.2394E-18 -0.1707E-19
    -12.149 -0.1212E-14 -0.8645E-16
    -12.078 -0.2238E-11 -0.1597E-12
    -12.007 -0.1455E-08 -0.1039E-09
    -11.936 -0.3289E-06 -0.2356E-07
    -11.864 -0.2519E-04 -0.1819E-05
    -11.793 -0.6097E-03 -0.4529E-04
    -11.722 -0.3535E-02 -0.2974E-03
    -11.650  0.8000E-02  0.2731E-03
    -11.579  0.6323E-01  0.4782E-02
    -11.508  0.6692E-01  0.9553E-02
    -11.436  0.1072E-01  0.1032E-01
    -11.365 -0.3690E-02  0.1005E-01
    -11.294 -0.7313E-03  0.1000E-01
    -11.223 -0.3302E-04  0.1000E-01
    -11.151 -0.4672E-06  0.1000E-01
    -11.080 -0.2232E-08  0.1000E-01
    -11.009 -0.3705E-11  0.1000E-01
    -10.937 -0.2170E-14  0.1000E-01
    -10.866  0.0000E+00  0.1000E-01
    -10.795  0.0000E+00  0.1000E-01
    -10.723  0.0000E+00  0.1000E-01
    -10.652  0.0000E+00  0.1000E-01
    -10.581  0.0000E+00  0.1000E-01
    -10.510  0.0000E+00  0.1000E-01
    -10.438  0.0000E+00  0.1000E-01
    -10.367  0.0000E+00  0.1000E-01
    -10.296  0.0000E+00  0.1000E-01
    -10.224  0.0000E+00  0.1000E-01
    -10.153  0.0000E+00  0.1000E-01
    -10.082  0.0000E+00  0.1000E-01
    -10.010  0.0000E+00  0.1000E-01
     -9.939  0.0000E+00  0.1000E-01
     -9.868  0.0000E+00  0.1000E-01
     -9.797  0.0000E+00  0.1000E-01
     -9.725 -0.9880E-33  0.1000E-01
     -9.654 -0.8623E-28  0.1000E-01
     -9.583 -0.2738E-23  0.1000E-01
     -9.511 -0.3166E-19  0.1000E-01
     -9.440 -0.1293E-15  0.1000E-01
     -9.369 -0.1965E-12  0.1000E-01
     -9.297 -0.1081E-09  0.1000E-01
     -9.226 -0.2136E-07  0.1000E-01
     -9.155 -0.1489E-05  0.1000E-01
     -9.084 -0.3510E-04  0.9997E-02
     -9.012 -0.2372E-03  0.9980E-02
     -8.941  0.9673E-04  0.9987E-02
     -8.870  0.3783E-02  0.1026E-01
     -8.798  0.8888E-02  0.1089E-01
     -8.727  0.1048E-01  0.1164E-01
     -8.656  0.1029E-01  0.1237E-01
     -8.584  0.1037E-01  0.1311E-01
     -8.513  0.9990E-02  0.1382E-01
     -8.442  0.1103E-01  0.1461E-01
     -8.371  0.9407E-02  0.1528E-01
     -8.299  0.1119E-01  0.1608E-01
     -8.228  0.1091E-01  0.1686E-01
     -8.157  0.8674E-02  0.1748E-01
     -8.085  0.1238E-01  0.1836E-01
     -8.014  0.1077E-01  0.1913E-01
     -7.943  0.1057E-01  0.1988E-01
     -7.871  0.2056E-01  0.2134E-01
     -7.800  0.2368E-01  0.2303E-01
     -7.729  0.1878E-01  0.2437E-01
     -7.658  0.2066E-01  0.2585E-01
     -7.586  0.2533E-01  0.2765E-01
     -7.515  0.2310E-01  0.2930E-01
     -7.444  0.1640E-01  0.3047E-01
     -7.372  0.2313E-01  0.3212E-01
     -7.301  0.2590E-01  0.3396E-01
     -7.230  0.2198E-01  0.3553E-01
     -7.158  0.2131E-01  0.3705E-01
     -7.087  0.2006E-01  0.3848E-01
     -7.016  0.2576E-01  0.4032E-01
     -6.945  0.2629E-01  0.4219E-01
     -6.873  0.2099E-01  0.4369E-01
     -6.802  0.1764E-01  0.4495E-01
     -6.731  0.2736E-01  0.4690E-01
     -6.659  0.3269E-01  0.4923E-01
     -6.588  0.2528E-01  0.5103E-01
     -6.517  0.2949E-01  0.5313E-01
     -6.445  0.3953E-01  0.5595E-01
     -6.374  0.4332E-01  0.5904E-01
     -6.303  0.3438E-01  0.6149E-01
     -6.232  0.3429E-01  0.6394E-01
     -6.160  0.3729E-01  0.6660E-01
     -6.089  0.4004E-01  0.6945E-01
     -6.018  0.4182E-01  0.7243E-01
     -5.946  0.4314E-01  0.7551E-01
     -5.875  0.4257E-01  0.7854E-01
     -5.804  0.3576E-01  0.8109E-01
     -5.732  0.4360E-01  0.8420E-01
     -5.661  0.5106E-01  0.8784E-01
     -5.590  0.4894E-01  0.9133E-01
     -5.519  0.4118E-01  0.9427E-01
     -5.447  0.4546E-01  0.9751E-01
     -5.376  0.6348E-01  0.1020E+00
     -5.305  0.7563E-01  0.1074E+00
     -5.233  0.6295E-01  0.1119E+00
     -5.162  0.6234E-01  0.1164E+00
     -5.091  0.9243E-01  0.1230E+00
     -5.019  0.1016E+00  0.1302E+00
     -4.948  0.1475E+00  0.1407E+00
     -4.877  0.2287E+00  0.1570E+00
     -4.806  0.2164E+00  0.1725E+00
     -4.734  0.1646E+00  0.1842E+00
     -4.663  0.1839E+00  0.1973E+00
     -4.592  0.2187E+00  0.2129E+00
     -4.520  0.2322E+00  0.2294E+00
     -4.449  0.2387E+00  0.2465E+00
     -4.378  0.2310E+00  0.2629E+00
     -4.306  0.2009E+00  0.2773E+00
     -4.235  0.2249E+00  0.2933E+00
     -4.164  0.3523E+00  0.3184E+00
     -4.093  0.4460E+00  0.3502E+00
     -4.021  0.4854E+00  0.3848E+00
     -3.950  0.5101E+00  0.4212E+00
     -3.879  0.4628E+00  0.4542E+00
     -3.807  0.4334E+00  0.4851E+00
     -3.736  0.4197E+00  0.5150E+00
     -3.665  0.3864E+00  0.5426E+00
     -3.593  0.3973E+00  0.5709E+00
     -3.522  0.3888E+00  0.5986E+00
     -3.451  0.3705E+00  0.6250E+00
     -3.380  0.5208E+00  0.6622E+00
     -3.308  0.6621E+00  0.7094E+00
     -3.237  0.5677E+00  0.7499E+00
     -3.166  0.4942E+00  0.7851E+00
     -3.094  0.5239E+00  0.8224E+00
     -3.023  0.6020E+00  0.8654E+00
     -2.952  0.6296E+00  0.9103E+00
     -2.880  0.6511E+00  0.9567E+00
     -2.809  0.8152E+00  0.1015E+01
     -2.738  0.1019E+01  0.1087E+01
     -2.666  0.9893E+00  0.1158E+01
     -2.595  0.8899E+00  0.1221E+01
     -2.524  0.8758E+00  0.1284E+01
     -2.453  0.8669E+00  0.1346E+01
     -2.381  0.7932E+00  0.1402E+01
     -2.310  0.7654E+00  0.1457E+01
     -2.239  0.7170E+00  0.1508E+01
     -2.167  0.6537E+00  0.1555E+01
     -2.096  0.7346E+00  0.1607E+01
     -2.025  0.8168E+00  0.1665E+01
     -1.953  0.8121E+00  0.1723E+01
     -1.882  0.8198E+00  0.1782E+01
     -1.811  0.8288E+00  0.1841E+01
     -1.740  0.8666E+00  0.1902E+01
     -1.668  0.8841E+00  0.1965E+01
     -1.597  0.9264E+00  0.2031E+01
     -1.526  0.1068E+01  0.2108E+01
     -1.454  0.1242E+01  0.2196E+01
     -1.383  0.1165E+01  0.2279E+01
     -1.312  0.7039E+00  0.2329E+01
     -1.240  0.2874E+00  0.2350E+01
     -1.169  0.1464E+00  0.2360E+01
     -1.098  0.9806E-01  0.2367E+01
     -1.027  0.9425E-01  0.2374E+01
     -0.955  0.1182E+00  0.2383E+01
     -0.884  0.1154E+00  0.2391E+01
     -0.813  0.1141E+00  0.2399E+01
     -0.741  0.1257E+00  0.2408E+01
     -0.670  0.1373E+00  0.2418E+01
     -0.599  0.1425E+00  0.2428E+01
     -0.527  0.1403E+00  0.2438E+01
     -0.456  0.1196E+00  0.2446E+01
     -0.385  0.8729E-01  0.2453E+01
     -0.314  0.6900E-01  0.2458E+01
     -0.242  0.6561E-01  0.2462E+01
     -0.171  0.9548E-01  0.2469E+01
     -0.100  0.1068E+00  0.2477E+01
     -0.028  0.8409E-01  0.2483E+01
      0.043  0.6494E-01  0.2487E+01
      0.114  0.5251E-01  0.2491E+01
      0.186  0.7049E-01  0.2496E+01
      0.257  0.1024E+00  0.2503E+01
      0.328  0.1004E+00  0.2510E+01
      0.399  0.7201E-01  0.2516E+01
      0.471  0.5443E-01  0.2519E+01
      0.542  0.4576E-01  0.2523E+01
      0.613  0.5675E-01  0.2527E+01
      0.685  0.9193E-01  0.2533E+01
      0.756  0.1022E+00  0.2541E+01
      0.827  0.8688E-01  0.2547E+01
      0.899  0.7340E-01  0.2552E+01
      0.970  0.4385E-01  0.2555E+01
      1.041  0.3000E-01  0.2557E+01
      1.112  0.5342E-01  0.2561E+01
      1.184  0.8833E-01  0.2567E+01
      1.255  0.1078E+00  0.2575E+01
      1.326  0.9378E-01  0.2582E+01
      1.398  0.6474E-01  0.2586E+01
      1.469  0.4489E-01  0.2590E+01
      1.540  0.4073E-01  0.2593E+01
      1.612  0.5296E-01  0.2596E+01
      1.683  0.7404E-01  0.2602E+01
      1.754  0.9508E-01  0.2608E+01
      1.825  0.8746E-01  0.2615E+01
      1.897  0.7086E-01  0.2620E+01
      1.968  0.6445E-01  0.2624E+01
      2.039  0.5748E-01  0.2628E+01
      2.111  0.6112E-01  0.2633E+01
      2.182  0.6682E-01  0.2637E+01
      2.253  0.6258E-01  0.2642E+01
      2.325  0.6522E-01  0.2647E+01
      2.396  0.7930E-01  0.2652E+01
      2.467  0.8232E-01  0.2658E+01
      2.538  0.7242E-01  0.2663E+01
      2.610  0.5281E-01  0.2667E+01
      2.681  0.4566E-01  0.2670E+01
      2.752  0.3950E-01  0.2673E+01
      2.824  0.4551E-01  0.2676E+01
      2.895  0.6610E-01  0.2681E+01
      2.966  0.5912E-01  0.2685E+01
      3.038  0.6368E-01  0.2690E+01
      3.109  0.6549E-01  0.2694E+01
      3.180  0.5752E-01  0.2699E+01
      3.251  0.6753E-01  0.2703E+01
      3.323  0.6397E-01  0.2708E+01
      3.394  0.5640E-01  0.2712E+01
      3.465  0.4944E-01  0.2716E+01
      3.537  0.4355E-01  0.2719E+01
      3.608  0.5134E-01  0.2722E+01
      3.679  0.5979E-01  0.2727E+01
      3.751  0.6672E-01  0.2731E+01
      3.822  0.5014E-01  0.2735E+01
      3.893  0.4775E-01  0.2738E+01
      3.964  0.5549E-01  0.2742E+01
      4.036  0.5213E-01  0.2746E+01
      4.107  0.4883E-01  0.2749E+01
      4.178  0.3838E-01  0.2752E+01
      4.250  0.3790E-01  0.2755E+01
      4.321  0.6228E-01  0.2759E+01
      4.392  0.7587E-01  0.2765E+01
      4.464  0.6845E-01  0.2770E+01
      4.535  0.6328E-01  0.2774E+01
      4.606  0.6268E-01  0.2779E+01
      4.677  0.5853E-01  0.2783E+01
      4.749  0.7034E-01  0.2788E+01
      4.820  0.7901E-01  0.2793E+01
      4.891  0.7577E-01  0.2799E+01
      4.963  0.7206E-01  0.2804E+01
      5.034  0.7346E-01  0.2809E+01
      5.105  0.6899E-01  0.2814E+01
      5.177  0.5715E-01  0.2818E+01
      5.248  0.5872E-01  0.2822E+01
      5.319  0.8007E-01  0.2828E+01
      5.390  0.8785E-01  0.2834E+01
      5.462  0.9366E-01  0.2841E+01
      5.533  0.9353E-01  0.2848E+01
      5.604  0.9306E-01  0.2854E+01
      5.676  0.8971E-01  0.2861E+01
      5.747  0.8277E-01  0.2867E+01
      5.818  0.9624E-01  0.2873E+01
      5.890  0.1139E+00  0.2882E+01
      5.961  0.9990E-01  0.2889E+01
      6.032  0.8060E-01  0.2894E+01
      6.103  0.9986E-01  0.2902E+01
      6.175  0.1202E+00  0.2910E+01
      6.246  0.1064E+00  0.2918E+01
      6.317  0.9037E-01  0.2924E+01
      6.389  0.1110E+00  0.2932E+01
      6.460  0.1164E+00  0.2940E+01
      6.531  0.1011E+00  0.2948E+01
      6.603  0.1061E+00  0.2955E+01
      6.674  0.1006E+00  0.2962E+01
      6.745  0.8843E-01  0.2969E+01
      6.816  0.9769E-01  0.2976E+01
      6.888  0.9988E-01  0.2983E+01
      6.959  0.1011E+00  0.2990E+01
      7.030  0.1157E+00  0.2998E+01
      7.102  0.1077E+00  0.3006E+01
      7.173  0.1001E+00  0.3013E+01
      7.244  0.1082E+00  0.3021E+01
      7.316  0.9314E-01  0.3027E+01
      7.387  0.6404E-01  0.3032E+01
      7.458  0.4316E-01  0.3035E+01
      7.529  0.3047E-01  0.3037E+01
      7.601  0.1974E-01  0.3039E+01
      7.672  0.1144E-01  0.3039E+01
      7.743  0.3901E-02  0.3040E+01
      7.815  0.2087E-02  0.3040E+01
      7.886  0.2000E-02  0.3040E+01
      7.957  0.2671E-03  0.3040E+01
      8.029 -0.1273E-03  0.3040E+01
      8.100 -0.2219E-04  0.3040E+01
      8.171 -0.9272E-06  0.3040E+01
      8.242 -0.1224E-07  0.3040E+01
      8.314 -0.5466E-10  0.3040E+01
      8.385 -0.8493E-13  0.3040E+01
      8.456 -0.4681E-16  0.3040E+01
      8.528  0.0000E+00  0.3040E+01
      8.599  0.0000E+00  0.3040E+01
      8.670  0.0000E+00  0.3040E+01
      8.742  0.0000E+00  0.3040E+01
      8.813  0.0000E+00  0.3040E+01
