       N       E                     dE             d eps       ncg     rms          rms(c)
DAV:   1     0.400776221107E+04    0.40078E+04   -0.19112E+05 51680   0.180E+03
DAV:   2     0.385960278197E+03   -0.36218E+04   -0.34502E+04 51680   0.427E+02
DAV:   3    -0.951748063035E+02   -0.48114E+03   -0.43805E+03 51728   0.179E+02
DAV:   4    -0.122360254371E+03   -0.27185E+02   -0.26613E+02 56808   0.464E+01
DAV:   5    -0.122854477247E+03   -0.49422E+00   -0.49168E+00 55712   0.509E+00
DAV:   6    -0.122869121342E+03   -0.14644E-01   -0.14639E-01 56816   0.761E-01
DAV:   7    -0.122869758255E+03   -0.63691E-03   -0.63688E-03 56912   0.161E-01
DAV:   8    -0.122869800908E+03   -0.42653E-04   -0.42653E-04 71352   0.368E-02
DAV:   9    -0.122869802859E+03   -0.19511E-05   -0.19513E-05 59568   0.526E-03
DAV:  10    -0.122869802893E+03   -0.34051E-07   -0.33721E-07 38064   0.654E-04    0.472E+01
RMM:  11    -0.127681054980E+03   -0.48113E+01   -0.46014E+02 51761   0.756E+01    0.421E+01
RMM:  12    -0.174493097922E+03   -0.46812E+02   -0.17391E+02 51694   0.338E+01    0.559E+01
RMM:  13    -0.107237285431E+03    0.67256E+02   -0.31263E+01 51784   0.156E+01    0.240E+01
RMM:  14    -0.878931438272E+02    0.19344E+02   -0.15425E+01 51882   0.115E+01    0.128E+01
RMM:  15    -0.851146944772E+02    0.27784E+01   -0.24810E+00 51920   0.429E+00    0.954E+00
RMM:  16    -0.821457202222E+02    0.29690E+01   -0.36098E+00 51976   0.461E+00    0.345E+00
RMM:  17    -0.818995119453E+02    0.24621E+00   -0.48334E-01 51960   0.196E+00    0.241E+00
RMM:  18    -0.818609188954E+02    0.38593E-01   -0.24577E-01 52007   0.135E+00    0.219E+00
RMM:  19    -0.817454087947E+02    0.11551E+00   -0.60887E-02 51900   0.498E-01    0.124E+00
RMM:  20    -0.817140347832E+02    0.31374E-01   -0.42027E-02 52041   0.551E-01    0.467E-01
RMM:  21    -0.817066779982E+02    0.73568E-02   -0.11879E-02 52085   0.301E-01    0.221E-01
RMM:  22    -0.817009440735E+02    0.57339E-02   -0.29717E-03 51848   0.121E-01    0.171E-01
RMM:  23    -0.816921819456E+02    0.87621E-02   -0.29695E-03 51875   0.987E-02    0.162E-01
RMM:  24    -0.816891591611E+02    0.30228E-02   -0.87075E-04 51960   0.763E-02    0.106E-01
RMM:  25    -0.816864455028E+02    0.27137E-02   -0.97244E-04 51803   0.677E-02    0.113E-01
RMM:  26    -0.816862414361E+02    0.20407E-03   -0.11003E-03 51756   0.561E-02    0.980E-02
RMM:  27    -0.816861419117E+02    0.99524E-04   -0.87209E-05 51720   0.216E-02    0.381E-02
RMM:  28    -0.816863818180E+02   -0.23991E-03   -0.81824E-05 51691   0.166E-02    0.269E-02
RMM:  29    -0.816865486330E+02   -0.16681E-03   -0.70221E-05 51911   0.176E-02    0.158E-02
RMM:  30    -0.816865790692E+02   -0.30436E-04   -0.11264E-05 51686   0.479E-03    0.129E-02
RMM:  31    -0.816865859455E+02   -0.68762E-05   -0.44951E-06 51444   0.422E-03    0.984E-03
RMM:  32    -0.816865848880E+02    0.10575E-05   -0.27373E-06 50919   0.296E-03    0.371E-03
RMM:  33    -0.816865851454E+02   -0.25740E-06   -0.47818E-07 34569   0.126E-03    0.210E-03
RMM:  34    -0.816865853766E+02   -0.23119E-06   -0.23772E-07 31846   0.951E-04    0.958E-04
RMM:  35    -0.816865854190E+02   -0.42382E-07   -0.10127E-07 30516   0.702E-04
   1 F= -.81686585E+02 E0= -.81682806E+02  d E =-.816866E+02
       N       E                     dE             d eps       ncg     rms          rms(c)
DAV:   1    -0.816878080196E+02   -0.12226E-02   -0.19926E-01 53112   0.853E-01    0.425E-02
RMM:   2    -0.816879846988E+02   -0.17668E-03   -0.21585E-03 51982   0.126E-01    0.277E-02
RMM:   3    -0.816880209712E+02   -0.36272E-04   -0.35177E-04 60985   0.317E-02    0.306E-02
RMM:   4    -0.816880141532E+02    0.68180E-05   -0.27237E-05 54290   0.119E-02    0.261E-02
RMM:   5    -0.816879994044E+02    0.14749E-04   -0.11345E-05 51884   0.760E-03    0.184E-02
RMM:   6    -0.816879962219E+02    0.31825E-05   -0.20249E-05 51697   0.684E-03    0.111E-02
RMM:   7    -0.816879967908E+02   -0.56888E-06   -0.19136E-05 52394   0.875E-03    0.848E-03
RMM:   8    -0.816879955949E+02    0.11959E-05   -0.27879E-06 51633   0.459E-03    0.489E-03
RMM:   9    -0.816879950962E+02    0.49869E-06   -0.46624E-07 35160   0.170E-03    0.327E-03
RMM:  10    -0.816879947867E+02    0.30948E-06   -0.60155E-07 34404   0.127E-03    0.149E-03
RMM:  11    -0.816879947004E+02    0.86329E-07   -0.48635E-07 32934   0.112E-03
   2 F= -.81687995E+02 E0= -.81684172E+02  d E =-.140928E-02
       N       E                     dE             d eps       ncg     rms          rms(c)
DAV:   1    -0.816886247805E+02   -0.62999E-03   -0.61656E-01 52352   0.150E+00    0.746E-02
RMM:   2    -0.816891662885E+02   -0.54151E-03   -0.66730E-03 51982   0.223E-01    0.486E-02
RMM:   3    -0.816892780517E+02   -0.11176E-03   -0.10887E-03 61021   0.561E-02    0.538E-02
RMM:   4    -0.816892574228E+02    0.20629E-04   -0.83950E-05 54533   0.208E-02    0.457E-02
RMM:   5    -0.816892100471E+02    0.47376E-04   -0.35165E-05 51949   0.136E-02    0.324E-02
RMM:   6    -0.816891975365E+02    0.12511E-04   -0.64486E-05 51720   0.119E-02    0.189E-02
RMM:   7    -0.816891983659E+02   -0.82947E-06   -0.58436E-05 52467   0.149E-02    0.154E-02
RMM:   8    -0.816891941483E+02    0.42176E-05   -0.88576E-06 51786   0.808E-03    0.867E-03
RMM:   9    -0.816891925603E+02    0.15881E-05   -0.15280E-06 51066   0.295E-03    0.581E-03
RMM:  10    -0.816891916264E+02    0.93390E-06   -0.16854E-06 43763   0.188E-03    0.273E-03
RMM:  11    -0.816891914045E+02    0.22186E-06   -0.17929E-06 45926   0.173E-03    0.623E-04
RMM:  12    -0.816891914275E+02   -0.22963E-07   -0.17287E-07 30477   0.918E-04
   3 F= -.81689191E+02 E0= -.81685294E+02  d E =-.260601E-02
       N       E                     dE             d eps       ncg     rms          rms(c)
DAV:   1    -0.816892069231E+02   -0.15519E-04   -0.30403E-02 52872   0.333E-01    0.164E-02
RMM:   2    -0.816892346151E+02   -0.27692E-04   -0.32721E-04 51968   0.495E-02    0.108E-02
RMM:   3    -0.816892395562E+02   -0.49411E-05   -0.53365E-05 61600   0.122E-02    0.114E-02
RMM:   4    -0.816892392237E+02    0.33246E-06   -0.40266E-06 53293   0.483E-03    0.922E-03
RMM:   5    -0.816892378789E+02    0.13449E-05   -0.13790E-06 50549   0.254E-03    0.752E-03
RMM:   6    -0.816892374973E+02    0.38152E-06   -0.31693E-06 49354   0.271E-03    0.439E-03
RMM:   7    -0.816892378220E+02   -0.32467E-06   -0.29421E-06 51795   0.349E-03    0.331E-03
RMM:   8    -0.816892376793E+02    0.14267E-06   -0.38941E-07 32989   0.178E-03    0.190E-03
RMM:   9    -0.816892376092E+02    0.70177E-07   -0.90010E-08 27963   0.880E-04
   4 F= -.81689238E+02 E0= -.81685324E+02  d E =-.265219E-02
       N       E                     dE             d eps       ncg     rms          rms(c)
DAV:   1    -0.816899108185E+02   -0.67314E-03   -0.26934E-01 51792   0.102E+00    0.522E-02
RMM:   2    -0.816900905190E+02   -0.17970E-03   -0.19329E-03 51828   0.123E-01    0.524E-02
RMM:   3    -0.816900781791E+02    0.12340E-04   -0.12036E-04 52690   0.262E-02    0.478E-02
RMM:   4    -0.816900227208E+02    0.55458E-04   -0.62484E-05 51998   0.194E-02    0.304E-02
RMM:   5    -0.816900069751E+02    0.15746E-04   -0.60507E-05 51842   0.174E-02    0.117E-02
RMM:   6    -0.816900054958E+02    0.14793E-05   -0.93647E-06 51699   0.838E-03    0.762E-03
RMM:   7    -0.816900043043E+02    0.11915E-05   -0.36671E-06 51598   0.616E-03    0.284E-03
RMM:   8    -0.816900044591E+02   -0.15487E-06   -0.41053E-07 34253   0.196E-03    0.176E-03
RMM:   9    -0.816900045303E+02   -0.71203E-07   -0.18750E-07 30674   0.137E-03
   5 F= -.81690005E+02 E0= -.81686065E+02  d E =-.766921E-03
       N       E                     dE             d eps       ncg     rms          rms(c)
DAV:   1    -0.816900424041E+02   -0.37945E-04   -0.23240E-02 52400   0.300E-01    0.152E-02
RMM:   2    -0.816900625491E+02   -0.20145E-04   -0.17121E-04 51823   0.366E-02    0.175E-02
RMM:   3    -0.816900567245E+02    0.58246E-05   -0.10568E-05 52506   0.768E-03    0.134E-02
RMM:   4    -0.816900532518E+02    0.34727E-05   -0.55294E-06 51714   0.591E-03    0.868E-03
RMM:   5    -0.816900525978E+02    0.65402E-06   -0.53862E-06 51693   0.496E-03    0.375E-03
RMM:   6    -0.816900525164E+02    0.81382E-07   -0.86944E-07 49078   0.242E-03
   6 F= -.81690053E+02 E0= -.81686103E+02  d E =-.814907E-03
       N       E                     dE             d eps       ncg     rms          rms(c)
DAV:   1    -0.816906254429E+02   -0.57285E-03   -0.20045E-01 51744   0.880E-01    0.367E-02
RMM:   2    -0.816906909808E+02   -0.65538E-04   -0.77805E-04 51805   0.891E-02    0.415E-02
RMM:   3    -0.816906903577E+02    0.62308E-06   -0.71986E-05 52857   0.208E-02    0.301E-02
RMM:   4    -0.816906670839E+02    0.23274E-04   -0.27225E-05 51977   0.143E-02    0.212E-02
RMM:   5    -0.816906559428E+02    0.11141E-04   -0.18515E-05 52014   0.113E-02    0.962E-03
RMM:   6    -0.816906562072E+02   -0.26440E-06   -0.95628E-06 51761   0.838E-03    0.709E-03
RMM:   7    -0.816906555595E+02    0.64769E-06   -0.27082E-06 51556   0.427E-03    0.308E-03
RMM:   8    -0.816906552318E+02    0.32773E-06   -0.38730E-07 32499   0.154E-03    0.127E-03
RMM:   9    -0.816906553250E+02   -0.93249E-07   -0.14209E-07 29063   0.123E-03
   7 F= -.81690655E+02 E0= -.81686702E+02  d E =-.602809E-03
       N       E                     dE             d eps       ncg     rms          rms(c)
DAV:   1    -0.816912765203E+02   -0.62129E-03   -0.59997E-01 51680   0.152E+00    0.633E-02
RMM:   2    -0.816914679928E+02   -0.19147E-03   -0.23476E-03 51804   0.155E-01    0.716E-02
RMM:   3    -0.816914662212E+02    0.17715E-05   -0.21634E-04 52938   0.362E-02    0.517E-02
RMM:   4    -0.816913916609E+02    0.74560E-04   -0.79744E-05 51997   0.243E-02    0.360E-02
RMM:   5    -0.816913570960E+02    0.34565E-04   -0.54789E-05 52020   0.195E-02    0.166E-02
RMM:   6    -0.816913556191E+02    0.14768E-05   -0.28194E-05 51857   0.145E-02    0.119E-02
RMM:   7    -0.816913538276E+02    0.17915E-05   -0.79551E-06 51690   0.732E-03    0.566E-03
RMM:   8    -0.816913527832E+02    0.10444E-05   -0.12867E-06 49481   0.269E-03    0.216E-03
RMM:   9    -0.816913529402E+02   -0.15702E-06   -0.40570E-07 34725   0.195E-03    0.154E-03
RMM:  10    -0.816913530693E+02   -0.12908E-06   -0.13487E-07 29226   0.131E-03    0.601E-04
RMM:  11    -0.816913530728E+02   -0.34706E-08   -0.32408E-08 28642   0.516E-04
   8 F= -.81691353E+02 E0= -.81687393E+02  d E =-.130056E-02
       N       E                     dE             d eps       ncg     rms          rms(c)
DAV:   1    -0.816911557145E+02    0.19735E-03   -0.24002E+00 51680   0.304E+00    0.127E-01
RMM:   2    -0.816919255219E+02   -0.76981E-03   -0.95858E-03 51805   0.313E-01    0.146E-01
RMM:   3    -0.816918983094E+02    0.27213E-04   -0.88219E-04 52930   0.737E-02    0.103E-01
RMM:   4    -0.816915931013E+02    0.30521E-03   -0.31882E-04 52018   0.485E-02    0.724E-02
RMM:   5    -0.816914477371E+02    0.14536E-03   -0.22077E-04 52002   0.389E-02    0.336E-02
RMM:   6    -0.816914349580E+02    0.12779E-04   -0.11573E-04 51922   0.295E-02    0.238E-02
RMM:   7    -0.816914278337E+02    0.71243E-05   -0.31896E-05 51815   0.146E-02    0.119E-02
RMM:   8    -0.816914233636E+02    0.44701E-05   -0.55396E-06 51612   0.551E-03    0.439E-03
RMM:   9    -0.816914236693E+02   -0.30574E-06   -0.17741E-06 51310   0.400E-03    0.311E-03
RMM:  10    -0.816914238603E+02   -0.19095E-06   -0.49421E-07 42804   0.225E-03    0.120E-03
RMM:  11    -0.816914238747E+02   -0.14479E-07   -0.92335E-08 29914   0.828E-04
   9 F= -.81691424E+02 E0= -.81687451E+02  d E =-.137136E-02
       N       E                     dE             d eps       ncg     rms          rms(c)
DAV:   1    -0.816915800452E+02   -0.15618E-03   -0.59375E-01 51680   0.151E+00    0.623E-02
RMM:   2    -0.816917336431E+02   -0.15360E-03   -0.22384E-03 51805   0.151E-01    0.669E-02
RMM:   3    -0.816917431601E+02   -0.95170E-05   -0.20561E-04 52985   0.349E-02    0.519E-02
RMM:   4    -0.816916679871E+02    0.75173E-04   -0.78755E-05 51995   0.241E-02    0.363E-02
RMM:   5    -0.816916222687E+02    0.45718E-04   -0.54717E-05 52032   0.196E-02    0.158E-02
RMM:   6    -0.816916165456E+02    0.57231E-05   -0.26069E-05 51842   0.139E-02    0.119E-02
RMM:   7    -0.816916142700E+02    0.22756E-05   -0.76818E-06 51683   0.726E-03    0.504E-03
RMM:   8    -0.816916135111E+02    0.75885E-06   -0.10860E-06 47707   0.248E-03    0.210E-03
RMM:   9    -0.816916133451E+02    0.16598E-06   -0.36943E-07 32685   0.187E-03    0.144E-03
RMM:  10    -0.816916131769E+02    0.16826E-06   -0.12326E-07 28834   0.127E-03    0.554E-04
RMM:  11    -0.816916131875E+02   -0.10579E-07   -0.28906E-08 28188   0.500E-04
  10 F= -.81691613E+02 E0= -.81687646E+02  d E =-.156067E-02
       N       E                     dE             d eps       ncg     rms          rms(c)
DAV:   1    -0.816918770358E+02   -0.26386E-03   -0.45208E-02 52192   0.419E-01    0.165E-02
RMM:   2    -0.816918929869E+02   -0.15951E-04   -0.16920E-04 51788   0.411E-02    0.195E-02
RMM:   3    -0.816918907872E+02    0.21997E-05   -0.94562E-06 52000   0.866E-03    0.134E-02
RMM:   4    -0.816918875767E+02    0.32105E-05   -0.45628E-06 51737   0.600E-03    0.100E-02
RMM:   5    -0.816918862845E+02    0.12921E-05   -0.52148E-06 52020   0.551E-03    0.414E-03
RMM:   6    -0.816918865841E+02   -0.29963E-06   -0.19722E-06 51600   0.390E-03    0.313E-03
RMM:   7    -0.816918862868E+02    0.29731E-06   -0.36988E-07 32398   0.161E-03    0.127E-03
RMM:   8    -0.816918861573E+02    0.12951E-06   -0.81728E-08 28488   0.726E-04    0.544E-04
RMM:   9    -0.816918861920E+02   -0.34670E-07   -0.28918E-08 27717   0.527E-04
  11 F= -.81691886E+02 E0= -.81687918E+02  d E =-.273005E-03
       N       E                     dE             d eps       ncg     rms          rms(c)
DAV:   1    -0.816923859033E+02   -0.49975E-03   -0.40682E-01 51680   0.126E+00    0.496E-02
RMM:   2    -0.816925211346E+02   -0.13523E-03   -0.15421E-03 51793   0.124E-01    0.601E-02
RMM:   3    -0.816924946571E+02    0.26478E-04   -0.86790E-05 52011   0.263E-02    0.403E-02
RMM:   4    -0.816924604160E+02    0.34241E-04   -0.41443E-05 52019   0.182E-02    0.299E-02
RMM:   5    -0.816924406026E+02    0.19813E-04   -0.46853E-05 52010   0.166E-02    0.127E-02
RMM:   6    -0.816924398958E+02    0.70688E-06   -0.18270E-05 51886   0.119E-02    0.946E-03
RMM:   7    -0.816924378505E+02    0.20453E-05   -0.35101E-06 51664   0.486E-03    0.394E-03
RMM:   8    -0.816924370837E+02    0.76676E-06   -0.80246E-07 42781   0.209E-03    0.177E-03
RMM:   9    -0.816924371631E+02   -0.79344E-07   -0.27602E-07 31261   0.160E-03
  12 F= -.81692437E+02 E0= -.81688465E+02  d E =-.823976E-03
       N       E                     dE             d eps       ncg     rms          rms(c)
DAV:   1    -0.816921456004E+02    0.29148E-03   -0.16274E+00 51680   0.251E+00    0.998E-02
RMM:   2    -0.816926885808E+02   -0.54298E-03   -0.62743E-03 51794   0.251E-01    0.123E-01
RMM:   3    -0.816925707675E+02    0.11781E-03   -0.35700E-04 52015   0.534E-02    0.808E-02
RMM:   4    -0.816924254206E+02    0.14535E-03   -0.16498E-04 52072   0.362E-02    0.598E-02
RMM:   5    -0.816923407076E+02    0.84713E-04   -0.18807E-04 51983   0.335E-02    0.259E-02
RMM:   6    -0.816923340019E+02    0.67057E-05   -0.76341E-05 51935   0.243E-02    0.191E-02
RMM:   7    -0.816923264624E+02    0.75395E-05   -0.14373E-05 51712   0.979E-03    0.828E-03
RMM:   8    -0.816923236465E+02    0.28159E-05   -0.35000E-06 51601   0.438E-03    0.358E-03
RMM:   9    -0.816923237934E+02   -0.14692E-06   -0.11649E-06 50839   0.313E-03    0.241E-03
RMM:  10    -0.816923240497E+02   -0.25627E-06   -0.31011E-07 31929   0.174E-03    0.797E-04
RMM:  11    -0.816923240577E+02   -0.79890E-08   -0.75910E-08 29341   0.777E-04
  13 F= -.81692324E+02 E0= -.81688346E+02  d E =-.710870E-03
       N       E                     dE             d eps       ncg     rms          rms(c)
DAV:   1    -0.816925542047E+02   -0.23016E-03   -0.60282E-01 51680   0.153E+00    0.599E-02
RMM:   2    -0.816927248690E+02   -0.17066E-03   -0.22090E-03 51793   0.148E-01    0.702E-02
RMM:   3    -0.816926928262E+02    0.32043E-04   -0.12218E-04 52006   0.309E-02    0.489E-02
RMM:   4    -0.816926407113E+02    0.52115E-04   -0.63380E-05 52080   0.225E-02    0.366E-02
RMM:   5    -0.816925944728E+02    0.46239E-04   -0.69273E-05 51984   0.199E-02    0.146E-02
RMM:   6    -0.816925896047E+02    0.48681E-05   -0.24911E-05 51888   0.138E-02    0.114E-02
RMM:   7    -0.816925873360E+02    0.22688E-05   -0.50301E-06 51680   0.587E-03    0.427E-03
RMM:   8    -0.816925869689E+02    0.36710E-06   -0.98992E-07 47582   0.229E-03    0.213E-03
RMM:   9    -0.816925868109E+02    0.15798E-06   -0.37177E-07 32706   0.183E-03    0.139E-03
RMM:  10    -0.816925866087E+02    0.20221E-06   -0.12881E-07 28963   0.124E-03    0.454E-04
RMM:  11    -0.816925866266E+02   -0.17950E-07   -0.29050E-08 28062   0.490E-04
  14 F= -.81692587E+02 E0= -.81688612E+02  d E =-.973439E-03
       N       E                     dE             d eps       ncg     rms          rms(c)
DAV:   1    -0.816929296626E+02   -0.34305E-03   -0.90944E-02 51680   0.591E-01    0.231E-02
RMM:   2    -0.816929650990E+02   -0.35436E-04   -0.36040E-04 51819   0.597E-02    0.273E-02
RMM:   3    -0.816929626422E+02    0.24568E-05   -0.47154E-05 56030   0.143E-02    0.194E-02
RMM:   4    -0.816929533487E+02    0.92935E-05   -0.11168E-05 51858   0.889E-03    0.136E-02
RMM:   5    -0.816929492093E+02    0.41394E-05   -0.62852E-06 51977   0.651E-03    0.639E-03
RMM:   6    -0.816929500264E+02   -0.81707E-06   -0.49908E-06 51761   0.563E-03    0.626E-03
RMM:   7    -0.816929495030E+02    0.52340E-06   -0.17763E-06 51342   0.343E-03    0.151E-03
RMM:   8    -0.816929494299E+02    0.73123E-07   -0.14570E-07 30379   0.837E-04
  15 F= -.81692949E+02 E0= -.81688973E+02  d E =-.362803E-03
       N       E                     dE             d eps       ncg     rms          rms(c)
DAV:   1    -0.816936756895E+02   -0.72619E-03   -0.81839E-01 51680   0.177E+00    0.698E-02
RMM:   2    -0.816939888890E+02   -0.31320E-03   -0.32866E-03 51828   0.180E-01    0.836E-02
RMM:   3    -0.816939587975E+02    0.30091E-04   -0.42961E-04 55914   0.433E-02    0.584E-02
RMM:   4    -0.816938694416E+02    0.89356E-04   -0.10195E-04 52016   0.268E-02    0.407E-02
RMM:   5    -0.816938245440E+02    0.44898E-04   -0.56287E-05 52011   0.196E-02    0.194E-02
RMM:   6    -0.816938260073E+02   -0.14633E-05   -0.45035E-05 51900   0.170E-02    0.184E-02
RMM:   7    -0.816938207348E+02    0.52725E-05   -0.15963E-05 51802   0.103E-02    0.491E-03
RMM:   8    -0.816938196477E+02    0.10871E-05   -0.14342E-06 50118   0.246E-03    0.246E-03
RMM:   9    -0.816938196198E+02    0.27903E-07   -0.45716E-07 37393   0.196E-03
  16 F= -.81693820E+02 E0= -.81689840E+02  d E =-.123299E-02
       N       E                     dE             d eps       ncg     rms          rms(c)
DAV:   1    -0.816940772446E+02   -0.25760E-03   -0.32740E+00 51680   0.355E+00    0.141E-01
RMM:   2    -0.816953637362E+02   -0.12865E-02   -0.13436E-02 51830   0.366E-01    0.173E-01
RMM:   3    -0.816951888805E+02    0.17486E-03   -0.17463E-03 55825   0.879E-02    0.117E-01
RMM:   4    -0.816948261012E+02    0.36278E-03   -0.41524E-04 52043   0.541E-02    0.810E-02
RMM:   5    -0.816946481853E+02    0.17792E-03   -0.22554E-04 51986   0.392E-02    0.397E-02
RMM:   6    -0.816946436276E+02    0.45578E-05   -0.18428E-04 52020   0.345E-02    0.364E-02
RMM:   7    -0.816946226271E+02    0.21001E-04   -0.65098E-05 51859   0.209E-02    0.107E-02
RMM:   8    -0.816946171413E+02    0.54858E-05   -0.60062E-06 51769   0.490E-03    0.498E-03
RMM:   9    -0.816946168697E+02    0.27162E-06   -0.19195E-06 51373   0.391E-03    0.348E-03
RMM:  10    -0.816946169367E+02   -0.67012E-07   -0.11282E-06 50382   0.245E-03    0.119E-03
RMM:  11    -0.816946170209E+02   -0.84168E-07   -0.14310E-07 30266   0.102E-03
  17 F= -.81694617E+02 E0= -.81690633E+02  d E =-.203039E-02
       N       E                     dE             d eps       ncg     rms          rms(c)
DAV:   1    -0.816948250945E+02   -0.20816E-03   -0.61765E-02 52656   0.492E-01    0.191E-02
RMM:   2    -0.816948483399E+02   -0.23245E-04   -0.23860E-04 51916   0.516E-02    0.207E-02
RMM:   3    -0.816948464933E+02    0.18465E-05   -0.17715E-05 53262   0.103E-02    0.157E-02
RMM:   4    -0.816948411635E+02    0.53298E-05   -0.84959E-06 51713   0.783E-03    0.121E-02
RMM:   5    -0.816948384794E+02    0.26842E-05   -0.64794E-06 52005   0.584E-03    0.293E-03
RMM:   6    -0.816948387064E+02   -0.22702E-06   -0.12167E-06 51249   0.293E-03    0.184E-03
RMM:   7    -0.816948385481E+02    0.15834E-06   -0.23694E-07 30346   0.150E-03    0.976E-04
RMM:   8    -0.816948385542E+02   -0.61846E-08   -0.77601E-08 28403   0.981E-04
  18 F= -.81694839E+02 E0= -.81690857E+02  d E =-.221533E-03
       N       E                     dE             d eps       ncg     rms          rms(c)
DAV:   1    -0.816952189743E+02   -0.38043E-03   -0.55588E-01 51680   0.147E+00    0.575E-02
RMM:   2    -0.816954217011E+02   -0.20273E-03   -0.21707E-03 51920   0.156E-01    0.629E-02
RMM:   3    -0.816954008359E+02    0.20865E-04   -0.16134E-04 53245   0.312E-02    0.470E-02
RMM:   4    -0.816953476366E+02    0.53199E-04   -0.76278E-05 51883   0.235E-02    0.362E-02
RMM:   5    -0.816953153565E+02    0.32280E-04   -0.57999E-05 52029   0.176E-02    0.931E-03
RMM:   6    -0.816953152595E+02    0.97010E-07   -0.11837E-05 51917   0.916E-03    0.581E-03
RMM:   7    -0.816953138289E+02    0.14306E-05   -0.23978E-06 51512   0.467E-03    0.294E-03
RMM:   8    -0.816953136886E+02    0.14026E-06   -0.61552E-07 44366   0.244E-03    0.134E-03
RMM:   9    -0.816953137906E+02   -0.10193E-06   -0.11567E-07 29677   0.975E-04    0.758E-04
RMM:  10    -0.816953138102E+02   -0.19681E-07   -0.51201E-08 28319   0.667E-04
  19 F= -.81695314E+02 E0= -.81691340E+02  d E =-.696789E-03
       N       E                     dE             d eps       ncg     rms          rms(c)
DAV:   1    -0.816950250833E+02    0.28871E-03   -0.22237E+00 51680   0.295E+00    0.115E-01
RMM:   2    -0.816958376454E+02   -0.81256E-03   -0.87768E-03 51918   0.314E-01    0.128E-01
RMM:   3    -0.816957376394E+02    0.10001E-03   -0.65282E-04 53240   0.629E-02    0.939E-02
RMM:   4    -0.816955219321E+02    0.21571E-03   -0.30448E-04 51928   0.468E-02    0.722E-02
RMM:   5    -0.816953912806E+02    0.13065E-03   -0.23308E-04 51996   0.350E-02    0.196E-02
RMM:   6    -0.816953883677E+02    0.29129E-05   -0.50731E-05 51888   0.186E-02    0.122E-02
RMM:   7    -0.816953823801E+02    0.59876E-05   -0.10454E-05 51987   0.949E-03    0.658E-03
RMM:   8    -0.816953815936E+02    0.78641E-06   -0.26771E-06 51383   0.498E-03    0.304E-03
RMM:   9    -0.816953817497E+02   -0.15603E-06   -0.59200E-07 38813   0.197E-03    0.255E-03
RMM:  10    -0.816953817238E+02    0.25902E-07   -0.32009E-07 32519   0.174E-03
  20 F= -.81695382E+02 E0= -.81691428E+02  d E =-.764703E-03
       N       E                     dE             d eps       ncg     rms          rms(c)
DAV:   1    -0.816953974151E+02   -0.15665E-04   -0.71204E-01 51680   0.167E+00    0.647E-02
RMM:   2    -0.816956298991E+02   -0.23248E-03   -0.27293E-03 51923   0.175E-01    0.684E-02
RMM:   3    -0.816956137880E+02    0.16111E-04   -0.20281E-04 53278   0.348E-02    0.533E-02
RMM:   4    -0.816955421219E+02    0.71666E-04   -0.96644E-05 51904   0.263E-02    0.416E-02
RMM:   5    -0.816954891926E+02    0.52929E-04   -0.73601E-05 52030   0.198E-02    0.935E-03
RMM:   6    -0.816954874037E+02    0.17889E-05   -0.12699E-05 51960   0.955E-03    0.598E-03
RMM:   7    -0.816954860295E+02    0.13742E-05   -0.26715E-06 51639   0.499E-03    0.307E-03
RMM:   8    -0.816954857806E+02    0.24890E-06   -0.66949E-07 46600   0.256E-03    0.146E-03
RMM:   9    -0.816954856464E+02    0.13423E-06   -0.12778E-07 29956   0.100E-03    0.695E-04
RMM:  10    -0.816954856211E+02    0.25342E-07   -0.49708E-08 28357   0.618E-04
  21 F= -.81695486E+02 E0= -.81691520E+02  d E =-.868600E-03
       N       E                     dE             d eps       ncg     rms          rms(c)
DAV:   1    -0.816956086215E+02   -0.12298E-03   -0.67269E-02 51792   0.511E-01    0.239E-02
RMM:   2    -0.816956452447E+02   -0.36623E-04   -0.45448E-04 51906   0.566E-02    0.224E-02
RMM:   3    -0.816956510443E+02   -0.57996E-05   -0.40442E-05 55218   0.136E-02    0.202E-02
RMM:   4    -0.816956440380E+02    0.70063E-05   -0.93446E-06 51830   0.625E-03    0.161E-02
RMM:   5    -0.816956386443E+02    0.53937E-05   -0.97246E-06 51994   0.706E-03    0.760E-03
RMM:   6    -0.816956385426E+02    0.10166E-06   -0.34706E-06 51678   0.438E-03    0.308E-03
RMM:   7    -0.816956382438E+02    0.29883E-06   -0.95198E-07 48297   0.267E-03    0.167E-03
RMM:   8    -0.816956382773E+02   -0.33535E-07   -0.20987E-07 30231   0.143E-03
  22 F= -.81695638E+02 E0= -.81691675E+02  d E =-.152656E-03
       N       E                     dE             d eps       ncg     rms          rms(c)
DAV:   1    -0.816956448105E+02   -0.65667E-05   -0.99806E-04 53056   0.623E-02    0.294E-03
RMM:   2    -0.816956456386E+02   -0.82803E-06   -0.70231E-06 51665   0.715E-03    0.284E-03
RMM:   3    -0.816956457080E+02   -0.69464E-07   -0.58983E-07 36713   0.178E-03
  23 F= -.81695646E+02 E0= -.81691686E+02  d E =-.160087E-03
       N       E                     dE             d eps       ncg     rms          rms(c)
DAV:   1    -0.816956480375E+02   -0.23989E-05   -0.39969E-03 52000   0.125E-01    0.707E-03
RMM:   2    -0.816956541416E+02   -0.61042E-05   -0.27857E-05 51821   0.144E-02    0.105E-02
RMM:   3    -0.816956505026E+02    0.36391E-05   -0.30387E-06 53233   0.347E-03    0.587E-03
RMM:   4    -0.816956502896E+02    0.21296E-06   -0.12657E-06 50710   0.321E-03    0.413E-03
RMM:   5    -0.816956503859E+02   -0.96356E-07   -0.93362E-07 50122   0.235E-03
  24 F= -.81695650E+02 E0= -.81691687E+02  d E =-.164765E-03
       N       E                     dE             d eps       ncg     rms          rms(c)
DAV:   1    -0.816956508013E+02   -0.51174E-06   -0.10268E-03 52032   0.633E-02    0.320E-03
RMM:   2    -0.816956512002E+02   -0.39884E-06   -0.75432E-06 51642   0.739E-03    0.375E-03
RMM:   3    -0.816956510740E+02    0.12616E-06   -0.74334E-07 42915   0.203E-03    0.264E-03
RMM:   4    -0.816956508887E+02    0.18533E-06   -0.16650E-07 30968   0.970E-04    0.233E-03
RMM:   5    -0.816956506387E+02    0.24997E-06   -0.16424E-07 30262   0.974E-04    0.990E-04
RMM:   6    -0.816956505351E+02    0.10366E-06   -0.12520E-07 28851   0.104E-03    0.888E-04
RMM:   7    -0.816956504965E+02    0.38519E-07   -0.63444E-08 27499   0.897E-04
  25 F= -.81695650E+02 E0= -.81691689E+02  d E =-.164875E-03
       N       E                     dE             d eps       ncg     rms          rms(c)
DAV:   1    -0.816956966633E+02   -0.46128E-04   -0.64546E-03 51680   0.152E-01    0.909E-03
RMM:   2    -0.816957023306E+02   -0.56673E-05   -0.64896E-05 52064   0.205E-02    0.605E-03
RMM:   3    -0.816957047455E+02   -0.24149E-05   -0.12750E-05 61154   0.589E-03    0.796E-03
RMM:   4    -0.816957035743E+02    0.11712E-05   -0.12743E-06 49887   0.246E-03    0.526E-03
RMM:   5    -0.816957031351E+02    0.43923E-06   -0.74877E-07 46151   0.241E-03    0.341E-03
RMM:   6    -0.816957031803E+02   -0.45286E-07   -0.88752E-07 38444   0.169E-03
  26 F= -.81695703E+02 E0= -.81691743E+02  d E =-.526838E-04
       N       E                     dE             d eps       ncg     rms          rms(c)
DAV:   1    -0.816957432130E+02   -0.40078E-04   -0.58055E-02 51680   0.457E-01    0.279E-02
RMM:   2    -0.816957899589E+02   -0.46746E-04   -0.58294E-04 52084   0.608E-02    0.183E-02
RMM:   3    -0.816958152282E+02   -0.25269E-04   -0.11732E-04 61068   0.182E-02    0.255E-02
RMM:   4    -0.816957975589E+02    0.17669E-04   -0.12538E-05 52239   0.782E-03    0.155E-02
RMM:   5    -0.816957933273E+02    0.42317E-05   -0.76533E-06 51727   0.776E-03    0.996E-03
RMM:   6    -0.816957928312E+02    0.49602E-06   -0.83455E-06 51921   0.539E-03    0.514E-03
RMM:   7    -0.816957928397E+02   -0.84256E-08   -0.39620E-06 52757   0.468E-03    0.371E-03
RMM:   8    -0.816957926862E+02    0.15352E-06   -0.63173E-07 46043   0.229E-03    0.218E-03
RMM:   9    -0.816957925724E+02    0.11374E-06   -0.17823E-07 29821   0.694E-04    0.136E-03
RMM:  10    -0.816957925292E+02    0.43256E-07   -0.10076E-07 28316   0.563E-04
  27 F= -.81695793E+02 E0= -.81691834E+02  d E =-.142033E-03
       N       E                     dE             d eps       ncg     rms          rms(c)
DAV:   1    -0.816958413563E+02   -0.48784E-04   -0.84771E-03 51680   0.173E-01    0.109E-02
RMM:   2    -0.816958504725E+02   -0.91161E-05   -0.10547E-04 52016   0.243E-02    0.766E-03
RMM:   3    -0.816958514483E+02   -0.97586E-06   -0.15407E-05 59757   0.680E-03    0.697E-03
RMM:   4    -0.816958514458E+02    0.25102E-08   -0.20921E-06 51237   0.352E-03    0.552E-03
RMM:   5    -0.816958510463E+02    0.39949E-06   -0.84517E-07 47827   0.202E-03    0.502E-03
RMM:   6    -0.816958504939E+02    0.55244E-06   -0.11706E-06 40788   0.188E-03    0.230E-03
RMM:   7    -0.816958504976E+02   -0.37107E-08   -0.52536E-07 36196   0.186E-03
  28 F= -.81695850E+02 E0= -.81691893E+02  d E =-.579684E-04
       N       E                     dE             d eps       ncg     rms          rms(c)
DAV:   1    -0.816958747850E+02   -0.24291E-04   -0.76224E-02 51680   0.518E-01    0.328E-02
RMM:   2    -0.816959565434E+02   -0.81758E-04   -0.94267E-04 52014   0.724E-02    0.227E-02
RMM:   3    -0.816959718878E+02   -0.15344E-04   -0.13999E-04 59584   0.208E-02    0.231E-02
RMM:   4    -0.816959675894E+02    0.42984E-05   -0.17162E-05 52477   0.951E-03    0.209E-02
RMM:   5    -0.816959551679E+02    0.12422E-04   -0.11038E-05 51684   0.759E-03    0.124E-02
RMM:   6    -0.816959532174E+02    0.19505E-05   -0.11025E-05 51671   0.571E-03    0.733E-03
RMM:   7    -0.816959527427E+02    0.47466E-06   -0.50477E-06 51976   0.516E-03    0.339E-03
RMM:   8    -0.816959526909E+02    0.51885E-07   -0.61225E-07 40090   0.199E-03
  29 F= -.81695953E+02 E0= -.81691996E+02  d E =-.160162E-03
       N       E                     dE             d eps       ncg     rms          rms(c)
DAV:   1    -0.816959557394E+02   -0.29966E-05   -0.74312E-03 51728   0.162E-01    0.106E-02
RMM:   2    -0.816959641430E+02   -0.84037E-05   -0.95990E-05 51999   0.231E-02    0.722E-03
RMM:   3    -0.816959678905E+02   -0.37475E-05   -0.15027E-05 59149   0.677E-03    0.950E-03
RMM:   4    -0.816959651592E+02    0.27313E-05   -0.18579E-06 51383   0.295E-03    0.611E-03
RMM:   5    -0.816959644955E+02    0.66377E-06   -0.12240E-06 50311   0.278E-03    0.375E-03
RMM:   6    -0.816959643621E+02    0.13335E-06   -0.11891E-06 41563   0.202E-03    0.194E-03
RMM:   7    -0.816959644177E+02   -0.55588E-07   -0.49999E-07 35841   0.186E-03
  30 F= -.81695964E+02 E0= -.81692010E+02  d E =-.171889E-03
       N       E                     dE             d eps       ncg     rms          rms(c)
DAV:   1    -0.816959961107E+02   -0.31749E-04   -0.12198E-02 51680   0.197E-01    0.159E-02
RMM:   2    -0.816960126131E+02   -0.16502E-04   -0.18903E-04 52089   0.286E-02    0.102E-02
RMM:   3    -0.816960154656E+02   -0.28525E-05   -0.32651E-05 61274   0.932E-03    0.104E-02
RMM:   4    -0.816960143092E+02    0.11564E-05   -0.41685E-06 51552   0.463E-03    0.583E-03
RMM:   5    -0.816960162835E+02   -0.19743E-05   -0.21512E-06 51482   0.343E-03    0.728E-03
RMM:   6    -0.816960146311E+02    0.16524E-05   -0.13927E-06 50265   0.250E-03    0.509E-03
RMM:   7    -0.816960142009E+02    0.43016E-06   -0.12908E-06 49949   0.283E-03    0.169E-03
RMM:   8    -0.816960141949E+02    0.59881E-08   -0.13679E-07 29852   0.102E-03
  31 F= -.81696014E+02 E0= -.81692057E+02  d E =-.497772E-04
       N       E                     dE             d eps       ncg     rms          rms(c)
DAV:   1    -0.816959534430E+02    0.60758E-04   -0.10987E-01 51680   0.591E-01    0.471E-02
RMM:   2    -0.816960996154E+02   -0.14617E-03   -0.16969E-03 52094   0.862E-02    0.304E-02
RMM:   3    -0.816961274699E+02   -0.27855E-04   -0.28809E-04 61937   0.272E-02    0.330E-02
RMM:   4    -0.816961257325E+02    0.17374E-05   -0.33262E-05 52216   0.120E-02    0.256E-02
RMM:   5    -0.816961121873E+02    0.13545E-04   -0.14508E-05 51839   0.976E-03    0.174E-02
RMM:   6    -0.816961063565E+02    0.58308E-05   -0.20954E-05 51723   0.786E-03    0.105E-02
RMM:   7    -0.816961051644E+02    0.11920E-05   -0.11732E-05 51996   0.770E-03    0.570E-03
RMM:   8    -0.816961046923E+02    0.47212E-06   -0.14648E-06 51216   0.305E-03    0.339E-03
RMM:   9    -0.816961044385E+02    0.25384E-06   -0.32490E-07 31809   0.157E-03    0.215E-03
RMM:  10    -0.816961042593E+02    0.17919E-06   -0.55333E-07 34112   0.116E-03    0.603E-04
RMM:  11    -0.816961042475E+02    0.11823E-07   -0.20707E-07 30324   0.893E-04
  32 F= -.81696104E+02 E0= -.81692143E+02  d E =-.139830E-03
       N       E                     dE             d eps       ncg     rms          rms(c)
DAV:   1    -0.816961366012E+02   -0.32342E-04   -0.65385E-03 51808   0.141E-01    0.125E-02
RMM:   2    -0.816961466511E+02   -0.10050E-04   -0.11382E-04 52059   0.208E-02    0.870E-03
RMM:   3    -0.816961488037E+02   -0.21526E-05   -0.15822E-05 57860   0.701E-03    0.854E-03
RMM:   4    -0.816961489284E+02   -0.12467E-06   -0.25231E-06 51352   0.365E-03    0.782E-03
RMM:   5    -0.816961473034E+02    0.16250E-05   -0.15563E-06 50248   0.271E-03    0.471E-03
RMM:   6    -0.816961472085E+02    0.94900E-07   -0.10117E-06 39931   0.184E-03    0.285E-03
RMM:   7    -0.816961471462E+02    0.62209E-07   -0.67057E-07 44530   0.227E-03
  33 F= -.81696147E+02 E0= -.81692185E+02  d E =-.428988E-04
       N       E                     dE             d eps       ncg     rms          rms(c)
DAV:   1    -0.816961228532E+02    0.24355E-04   -0.54832E-02 51680   0.409E-01    0.365E-02
RMM:   2    -0.816962057715E+02   -0.82918E-04   -0.95632E-04 52064   0.599E-02    0.251E-02
RMM:   3    -0.816962210946E+02   -0.15323E-04   -0.13570E-04 58119   0.206E-02    0.244E-02
RMM:   4    -0.816962214831E+02   -0.38851E-06   -0.21643E-05 52432   0.108E-02    0.224E-02
RMM:   5    -0.816962066574E+02    0.14826E-04   -0.12706E-05 51688   0.787E-03    0.137E-02
RMM:   6    -0.816962051440E+02    0.15134E-05   -0.85517E-06 51645   0.547E-03    0.862E-03
RMM:   7    -0.816962041275E+02    0.10165E-05   -0.55945E-06 51715   0.610E-03    0.299E-03
RMM:   8    -0.816962041494E+02   -0.21842E-07   -0.69061E-07 41188   0.213E-03
  34 F= -.81696204E+02 E0= -.81692234E+02  d E =-.999019E-04
       N       E                     dE             d eps       ncg     rms          rms(c)
DAV:   1    -0.816962287043E+02   -0.24577E-04   -0.78867E-03 51696   0.156E-01    0.143E-02
RMM:   2    -0.816962407692E+02   -0.12065E-04   -0.13550E-04 52039   0.229E-02    0.966E-03
RMM:   3    -0.816962478988E+02   -0.71296E-05   -0.19357E-05 56319   0.809E-03    0.129E-02
RMM:   4    -0.816962422627E+02    0.56361E-05   -0.35104E-06 51592   0.405E-03    0.849E-03
RMM:   5    -0.816962411316E+02    0.11311E-05   -0.24702E-06 51009   0.354E-03    0.435E-03
RMM:   6    -0.816962411591E+02   -0.27481E-07   -0.11567E-06 45656   0.221E-03    0.309E-03
RMM:   7    -0.816962410653E+02    0.93729E-07   -0.68913E-07 44975   0.228E-03
  35 F= -.81696241E+02 E0= -.81692271E+02  d E =-.369160E-04
       N       E                     dE             d eps       ncg     rms          rms(c)
DAV:   1    -0.816962222885E+02    0.18871E-04   -0.71025E-02 51680   0.466E-01    0.422E-02
RMM:   2    -0.816963260939E+02   -0.10381E-03   -0.11936E-03 52064   0.684E-02    0.291E-02
RMM:   3    -0.816963861801E+02   -0.60086E-04   -0.16652E-04 56342   0.239E-02    0.384E-02
RMM:   4    -0.816963354226E+02    0.50758E-04   -0.30830E-05 52280   0.120E-02    0.255E-02
RMM:   5    -0.816963232255E+02    0.12197E-04   -0.22833E-05 51685   0.106E-02    0.130E-02
RMM:   6    -0.816963229436E+02    0.28185E-06   -0.10735E-05 51760   0.704E-03    0.981E-03
RMM:   7    -0.816963213179E+02    0.16257E-05   -0.64918E-06 51806   0.690E-03    0.270E-03
RMM:   8    -0.816963213623E+02   -0.44398E-07   -0.73663E-07 47104   0.233E-03
  36 F= -.81696321E+02 E0= -.81692343E+02  d E =-.117213E-03
       N       E                     dE             d eps       ncg     rms          rms(c)
DAV:   1    -0.816959607666E+02    0.36055E-03   -0.28415E-01 51680   0.933E-01    0.842E-02
RMM:   2    -0.816963693234E+02   -0.40856E-03   -0.47820E-03 52066   0.137E-01    0.579E-02
RMM:   3    -0.816966134548E+02   -0.24413E-03   -0.66333E-04 56327   0.476E-02    0.780E-02
RMM:   4    -0.816963994931E+02    0.21396E-03   -0.12328E-04 52278   0.239E-02    0.499E-02
RMM:   5    -0.816963608057E+02    0.38687E-04   -0.90866E-05 51697   0.214E-02    0.258E-02
RMM:   6    -0.816963575920E+02    0.32137E-05   -0.41545E-05 51874   0.131E-02    0.185E-02
RMM:   7    -0.816963517936E+02    0.57984E-05   -0.23768E-05 51996   0.130E-02    0.573E-03
RMM:   8    -0.816963517381E+02    0.55537E-07   -0.30549E-06 52469   0.471E-03    0.405E-03
RMM:   9    -0.816963513929E+02    0.34516E-06   -0.74643E-07 48392   0.267E-03    0.183E-03
RMM:  10    -0.816963512368E+02    0.15614E-06   -0.61282E-07 34973   0.114E-03    0.682E-04
RMM:  11    -0.816963512733E+02   -0.36562E-07   -0.15360E-07 29850   0.101E-03
  37 F= -.81696351E+02 E0= -.81692361E+02  d E =-.147124E-03
       N       E                     dE             d eps       ncg     rms          rms(c)
DAV:   1    -0.816962526840E+02    0.98553E-04   -0.80944E-02 51680   0.498E-01    0.450E-02
RMM:   2    -0.816963672084E+02   -0.11452E-03   -0.13594E-03 52068   0.730E-02    0.309E-02
RMM:   3    -0.816964189384E+02   -0.51730E-04   -0.18929E-04 56287   0.254E-02    0.375E-02
RMM:   4    -0.816963780118E+02    0.40927E-04   -0.34131E-05 52385   0.128E-02    0.287E-02
RMM:   5    -0.816963594453E+02    0.18566E-04   -0.25002E-05 51696   0.107E-02    0.139E-02
RMM:   6    -0.816963589315E+02    0.51381E-06   -0.12069E-05 51759   0.760E-03    0.103E-02
RMM:   7    -0.816963567625E+02    0.21690E-05   -0.72366E-06 51870   0.731E-03    0.298E-03
RMM:   8    -0.816963566396E+02    0.12289E-06   -0.89171E-07 49798   0.260E-03    0.218E-03
RMM:   9    -0.816963565342E+02    0.10548E-06   -0.21243E-07 30541   0.148E-03    0.964E-04
RMM:  10    -0.816963565225E+02    0.11671E-07   -0.16771E-07 29906   0.725E-04
  38 F= -.81696357E+02 E0= -.81692373E+02  d E =-.152373E-03
       N       E                     dE             d eps       ncg     rms          rms(c)
DAV:   1    -0.816963773083E+02   -0.20774E-04   -0.24997E-03 52184   0.956E-02    0.571E-03
RMM:   2    -0.816963800794E+02   -0.27711E-05   -0.36528E-05 51812   0.126E-02    0.551E-03
RMM:   3    -0.816963797877E+02    0.29163E-06   -0.15650E-06 46579   0.242E-03    0.438E-03
RMM:   4    -0.816963803360E+02   -0.54823E-06   -0.79715E-07 41891   0.179E-03    0.519E-03
RMM:   5    -0.816963796168E+02    0.71916E-06   -0.83293E-07 48632   0.225E-03    0.290E-03
RMM:   6    -0.816963793093E+02    0.30749E-06   -0.31647E-07 32483   0.164E-03    0.116E-03
RMM:   7    -0.816963792709E+02    0.38373E-07   -0.64107E-08 28132   0.750E-04
  39 F= -.81696379E+02 E0= -.81692397E+02  d E =-.227485E-04
       N       E                     dE             d eps       ncg     rms          rms(c)
DAV:   1    -0.816963808065E+02   -0.14972E-05   -0.50195E-04 52520   0.429E-02    0.262E-03
RMM:   2    -0.816963813353E+02   -0.52875E-06   -0.73628E-06 51568   0.569E-03    0.258E-03
RMM:   3    -0.816963813189E+02    0.16400E-07   -0.28860E-07 31234   0.107E-03
  40 F= -.81696381E+02 E0= -.81692401E+02  d E =-.247964E-04
       N       E                     dE             d eps       ncg     rms          rms(c)
DAV:   1    -0.816964018899E+02   -0.20555E-04   -0.37994E-03 51728   0.122E-01    0.521E-03
RMM:   2    -0.816964032950E+02   -0.14051E-05   -0.17604E-05 51819   0.153E-02    0.518E-03
RMM:   3    -0.816964032082E+02    0.86882E-07   -0.12594E-06 51683   0.279E-03    0.453E-03
RMM:   4    -0.816964024730E+02    0.73518E-06   -0.73189E-07 48571   0.242E-03    0.303E-03
RMM:   5    -0.816964020903E+02    0.38263E-06   -0.45784E-07 38891   0.194E-03    0.104E-03
RMM:   6    -0.816964020456E+02    0.44725E-07   -0.12673E-07 29485   0.100E-03
  41 F= -.81696402E+02 E0= -.81692423E+02  d E =-.207267E-04
       N       E                     dE             d eps       ncg     rms          rms(c)
DAV:   1    -0.816964312091E+02   -0.29119E-04   -0.34173E-02 51680   0.366E-01    0.134E-02
RMM:   2    -0.816964418662E+02   -0.10657E-04   -0.14723E-04 51891   0.441E-02    0.111E-02
RMM:   3    -0.816964451511E+02   -0.32849E-05   -0.10146E-05 52738   0.789E-03    0.128E-02
RMM:   4    -0.816964400355E+02    0.51156E-05   -0.44058E-06 51712   0.556E-03    0.815E-03
RMM:   5    -0.816964377884E+02    0.22471E-05   -0.34803E-06 51741   0.514E-03    0.178E-03
RMM:   6    -0.816964376702E+02    0.11823E-06   -0.35296E-07 32324   0.159E-03    0.202E-03
RMM:   7    -0.816964375791E+02    0.91095E-07   -0.17708E-07 30411   0.134E-03
  42 F= -.81696438E+02 E0= -.81692463E+02  d E =-.562602E-04
