unknown system                          
           1
     5.412900   -5.412900   -0.000000
     0.000000    5.412900   -5.412900
    10.584969   10.584969   10.584969
   Cu   Rh   C    H 
  44   1   1   3
Direct configuration=     1
   0.22222222  0.11111111  0.00000000
   0.22222222  0.44444444  0.00000000
   0.22222222  0.77777778  0.00000000
   0.55555556  0.11111111  0.00000000
   0.55555556  0.44444444  0.00000000
   0.55555556  0.77777778  0.00000000
   0.88888889  0.11111111  0.00000000
   0.88888889  0.44444444  0.00000000
   0.88888889  0.77777778  0.00000000
   0.00000000  0.00000000  0.11363913
   0.00000000  0.33333333  0.11363913
   0.00000000  0.66666667  0.11363913
   0.33333333  0.00000000  0.11363913
   0.33333333  0.33333333  0.11363913
   0.33333333  0.66666667  0.11363913
   0.66666667  0.00000000  0.11363913
   0.66666667  0.33333333  0.11363913
   0.66666667  0.66666667  0.11363913
   0.99737439  0.99651193  0.45349770
   0.22211066  0.11067651  0.33948353
   0.11093400  0.22180190  0.22699157
   0.33269116  0.99670789  0.45355349
   0.55488083  0.11063740  0.34005322
   0.44409012  0.22180237  0.22695509
   0.66629719  0.99904720  0.45249039
   0.88918292  0.11064072  0.34007437
   0.77752593  0.22180564  0.22714985
   0.99764157  0.33265663  0.45356889
   0.22199655  0.44355954  0.33945819
   0.11051904  0.55536259  0.22724488
   0.55488401  0.44357348  0.33944728
   0.44407655  0.55496595  0.22693198
   0.66886723  0.33263836  0.45348437
   0.88811887  0.44285973  0.34048281
   0.77807843  0.55541593  0.22726472
   0.99956423  0.66568487  0.45325496
   0.22256693  0.77738940  0.34043388
   0.11053086  0.88790186  0.22726414
   0.33262479  0.66802405  0.45348338
   0.55489311  0.77637527  0.34004720
   0.44414371  0.88839754  0.22714000
   0.66852098  0.66774864  0.45358736
   0.88812808  0.77738611  0.34051982
   0.77752075  0.88837583  0.22714196
   0.33294880  0.33236999  0.46109653
   0.33319580  0.33127591  0.57532089
   0.38582322  0.48572865  0.59505925
   0.43528861  0.27861520  0.59472415
   0.17868367  0.22911506  0.59494689
Direct configuration=     2
   0.22222222  0.11111111  0.00000000
   0.22222222  0.44444444  0.00000000
   0.22222222  0.77777778  0.00000000
   0.55555556  0.11111111  0.00000000
   0.55555556  0.44444444  0.00000000
   0.55555556  0.77777778  0.00000000
   0.88888889  0.11111111  0.00000000
   0.88888889  0.44444444  0.00000000
   0.88888889  0.77777778  0.00000000
   0.00000000  0.00000000  0.11363913
   0.00000000  0.33333333  0.11363913
   0.00000000  0.66666667  0.11363913
   0.33333333  0.00000000  0.11363913
   0.33333333  0.33333333  0.11363913
   0.33333333  0.66666667  0.11363913
   0.66666667  0.00000000  0.11363913
   0.66666667  0.33333333  0.11363913
   0.66666667  0.66666667  0.11363913
   0.99739676  0.99654105  0.45343113
   0.22210006  0.11066696  0.33956832
   0.11086587  0.22177016  0.22692648
   0.33269154  0.99673955  0.45348820
   0.55490617  0.11061711  0.34008092
   0.44412982  0.22176849  0.22689500
   0.66629699  0.99905098  0.45243836
   0.88913804  0.11062160  0.34010093
   0.77751707  0.22177914  0.22711494
   0.99766521  0.33265855  0.45350367
   0.22198573  0.44356031  0.33954226
   0.11050635  0.55538398  0.22719169
   0.55489695  0.44358046  0.33953588
   0.44411641  0.55504142  0.22687403
   0.66884712  0.33264231  0.45341572
   0.88818403  0.44298722  0.34047680
   0.77811347  0.55543280  0.22721262
   0.99956978  0.66569050  0.45319943
   0.22244879  0.77733377  0.34043311
   0.11051837  0.88786749  0.22721036
   0.33262782  0.66799941  0.45341496
   0.55491409  0.77642236  0.34007487
   0.44416915  0.88841329  0.22710397
   0.66849817  0.66772847  0.45352070
   0.88819319  0.77732677  0.34051163
   0.77751122  0.88839516  0.22710788
   0.33295519  0.33237840  0.46094745
   0.33319314  0.33126796  0.57539300
   0.38580865  0.48567681  0.59505139
   0.43524186  0.27862745  0.59472019
   0.17874741  0.22916360  0.59493813
Direct configuration=     3
   0.22222222  0.11111111  0.00000000
   0.22222222  0.44444444  0.00000000
   0.22222222  0.77777778  0.00000000
   0.55555556  0.11111111  0.00000000
   0.55555556  0.44444444  0.00000000
   0.55555556  0.77777778  0.00000000
   0.88888889  0.11111111  0.00000000
   0.88888889  0.44444444  0.00000000
   0.88888889  0.77777778  0.00000000
   0.00000000  0.00000000  0.11363913
   0.00000000  0.33333333  0.11363913
   0.00000000  0.66666667  0.11363913
   0.33333333  0.00000000  0.11363913
   0.33333333  0.33333333  0.11363913
   0.33333333  0.66666667  0.11363913
   0.66666667  0.00000000  0.11363913
   0.66666667  0.33333333  0.11363913
   0.66666667  0.66666667  0.11363913
   0.99743611  0.99659226  0.45331405
   0.22208140  0.11065017  0.33971747
   0.11074601  0.22171433  0.22681200
   0.33269221  0.99679523  0.45337337
   0.55495076  0.11058143  0.34012964
   0.44419965  0.22170891  0.22678931
   0.66629663  0.99905763  0.45234685
   0.88905909  0.11058796  0.34014764
   0.77750149  0.22173254  0.22705352
   0.99770679  0.33266193  0.45338894
   0.22196669  0.44356168  0.33969014
   0.11048402  0.55542161  0.22709813
   0.55491970  0.44359273  0.33969172
   0.44418652  0.55517417  0.22677210
   0.66881174  0.33264927  0.45329497
   0.88829866  0.44321149  0.34046623
   0.77817511  0.55546248  0.22712096
   0.99957953  0.66570039  0.45310175
   0.22224099  0.77723592  0.34043175
   0.11049640  0.88780704  0.22711574
   0.33263317  0.66795607  0.45329461
   0.55495100  0.77650520  0.34012354
   0.44421389  0.88844100  0.22704059
   0.66845804  0.66769299  0.45340345
   0.88830771  0.77722239  0.34049721
   0.77749447  0.88842916  0.22704793
   0.33296643  0.33239319  0.46068520
   0.33318845  0.33125397  0.57551985
   0.38578301  0.48558562  0.59503756
   0.43515962  0.27864899  0.59471321
   0.17885955  0.22924897  0.59492271
Direct configuration=     4
   0.22222222  0.11111111  0.00000000
   0.22222222  0.44444444  0.00000000
   0.22222222  0.77777778  0.00000000
   0.55555556  0.11111111  0.00000000
   0.55555556  0.44444444  0.00000000
   0.55555556  0.77777778  0.00000000
   0.88888889  0.11111111  0.00000000
   0.88888889  0.44444444  0.00000000
   0.88888889  0.77777778  0.00000000
   0.00000000  0.00000000  0.11363913
   0.00000000  0.33333333  0.11363913
   0.00000000  0.66666667  0.11363913
   0.33333333  0.00000000  0.11363913
   0.33333333  0.33333333  0.11363913
   0.33333333  0.66666667  0.11363913
   0.66666667  0.00000000  0.11363913
   0.66666667  0.33333333  0.11363913
   0.66666667  0.66666667  0.11363913
   0.99744485  0.99660363  0.45328805
   0.22207726  0.11064644  0.33975058
   0.11071940  0.22170193  0.22678658
   0.33269236  0.99680760  0.45334787
   0.55496066  0.11057350  0.34014046
   0.44421516  0.22169568  0.22676584
   0.66629655  0.99905911  0.45232653
   0.88904156  0.11058050  0.34015802
   0.77749803  0.22172219  0.22703989
   0.99771603  0.33266269  0.45336347
   0.22196246  0.44356199  0.33972297
   0.11047907  0.55542997  0.22707735
   0.55492476  0.44359545  0.33972633
   0.44420209  0.55520364  0.22674947
   0.66880388  0.33265082  0.45326816
   0.88832411  0.44326129  0.34046388
   0.77818880  0.55546907  0.22710061
   0.99958170  0.66570258  0.45308006
   0.22219485  0.77721420  0.34043144
   0.11049152  0.88779362  0.22709474
   0.33263435  0.66794645  0.45326789
   0.55495920  0.77652359  0.34013435
   0.44422382  0.88844715  0.22702652
   0.66844914  0.66768512  0.45337742
   0.88833314  0.77719921  0.34049400
   0.77749075  0.88843671  0.22703462
   0.33296892  0.33239648  0.46062697
   0.33318741  0.33125087  0.57554801
   0.38577732  0.48556538  0.59503449
   0.43514136  0.27865378  0.59471167
   0.17888445  0.22926793  0.59491929
Direct configuration=     5
   0.22222222  0.11111111  0.00000000
   0.22222222  0.44444444  0.00000000
   0.22222222  0.77777778  0.00000000
   0.55555556  0.11111111  0.00000000
   0.55555556  0.44444444  0.00000000
   0.55555556  0.77777778  0.00000000
   0.88888889  0.11111111  0.00000000
   0.88888889  0.44444444  0.00000000
   0.88888889  0.77777778  0.00000000
   0.00000000  0.00000000  0.11363913
   0.00000000  0.33333333  0.11363913
   0.00000000  0.66666667  0.11363913
   0.33333333  0.00000000  0.11363913
   0.33333333  0.33333333  0.11363913
   0.33333333  0.66666667  0.11363913
   0.66666667  0.00000000  0.11363913
   0.66666667  0.33333333  0.11363913
   0.66666667  0.66666667  0.11363913
   0.99744630  0.99662137  0.45318453
   0.22205817  0.11062800  0.33980296
   0.11066460  0.22167785  0.22672512
   0.33269908  0.99682852  0.45324585
   0.55499258  0.11054943  0.34014065
   0.44425611  0.22166918  0.22671269
   0.66629705  0.99906638  0.45224956
   0.88898568  0.11056003  0.34015711
   0.77748855  0.22169026  0.22700340
   0.99771841  0.33266654  0.45326204
   0.22194210  0.44356465  0.33977470
   0.11048536  0.55544094  0.22701173
   0.55495181  0.44361013  0.33978500
   0.44424237  0.55527507  0.22669891
   0.66880442  0.33265631  0.45316122
   0.88840620  0.44341991  0.34041103
   0.77819659  0.55547091  0.22703606
   0.99958926  0.66571317  0.45299246
   0.22205743  0.77715319  0.34038590
   0.11049876  0.88778999  0.22702795
   0.33264367  0.66794495  0.45316024
   0.55498640  0.77658285  0.34013283
   0.44425517  0.88846617  0.22698924
   0.66844950  0.66769225  0.45327251
   0.88841074  0.77713124  0.34043831
   0.77748178  0.88846511  0.22699845
   0.33297844  0.33240792  0.46058451
   0.33322267  0.33130232  0.57536556
   0.38584915  0.48575380  0.59505686
   0.43526902  0.27856241  0.59474661
   0.17864814  0.22912415  0.59494830
Direct configuration=     6
   0.22222222  0.11111111  0.00000000
   0.22222222  0.44444444  0.00000000
   0.22222222  0.77777778  0.00000000
   0.55555556  0.11111111  0.00000000
   0.55555556  0.44444444  0.00000000
   0.55555556  0.77777778  0.00000000
   0.88888889  0.11111111  0.00000000
   0.88888889  0.44444444  0.00000000
   0.88888889  0.77777778  0.00000000
   0.00000000  0.00000000  0.11363913
   0.00000000  0.33333333  0.11363913
   0.00000000  0.66666667  0.11363913
   0.33333333  0.00000000  0.11363913
   0.33333333  0.33333333  0.11363913
   0.33333333  0.66666667  0.11363913
   0.66666667  0.00000000  0.11363913
   0.66666667  0.33333333  0.11363913
   0.66666667  0.66666667  0.11363913
   0.99744673  0.99662658  0.45315411
   0.22205256  0.11062259  0.33981835
   0.11064851  0.22167078  0.22670707
   0.33270105  0.99683466  0.45321589
   0.55500196  0.11054236  0.34014071
   0.44426814  0.22166139  0.22669708
   0.66629720  0.99906852  0.45222695
   0.88896926  0.11055401  0.34015684
   0.77748577  0.22168087  0.22699268
   0.99771911  0.33266767  0.45323224
   0.22193612  0.44356544  0.33978989
   0.11048721  0.55544416  0.22699245
   0.55495976  0.44361444  0.33980223
   0.44425420  0.55529605  0.22668405
   0.66880457  0.33265793  0.45312981
   0.88843032  0.44346651  0.34039550
   0.77819887  0.55547145  0.22701709
   0.99959149  0.66571628  0.45296672
   0.22201705  0.77713527  0.34037252
   0.11050088  0.88778893  0.22700833
   0.33264641  0.66794451  0.45312861
   0.55499439  0.77660026  0.34013238
   0.44426438  0.88847176  0.22697829
   0.66844960  0.66769434  0.45324169
   0.88843354  0.77711127  0.34042195
   0.77747915  0.88847345  0.22698783
   0.33298123  0.33241128  0.46057203
   0.33323303  0.33131744  0.57531196
   0.38587025  0.48580916  0.59506343
   0.43530652  0.27853557  0.59475688
   0.17857872  0.22908191  0.59495683
Direct configuration=     7
   0.22222222  0.11111111  0.00000000
   0.22222222  0.44444444  0.00000000
   0.22222222  0.77777778  0.00000000
   0.55555556  0.11111111  0.00000000
   0.55555556  0.44444444  0.00000000
   0.55555556  0.77777778  0.00000000
   0.88888889  0.11111111  0.00000000
   0.88888889  0.44444444  0.00000000
   0.88888889  0.77777778  0.00000000
   0.00000000  0.00000000  0.11363913
   0.00000000  0.33333333  0.11363913
   0.00000000  0.66666667  0.11363913
   0.33333333  0.00000000  0.11363913
   0.33333333  0.33333333  0.11363913
   0.33333333  0.66666667  0.11363913
   0.66666667  0.00000000  0.11363913
   0.66666667  0.33333333  0.11363913
   0.66666667  0.66666667  0.11363913
   0.99741963  0.99661641  0.45305869
   0.22204253  0.11061776  0.33979051
   0.11064830  0.22167325  0.22668839
   0.33271223  0.99682884  0.45312159
   0.55502117  0.11053084  0.34009733
   0.44428278  0.22166406  0.22668678
   0.66629817  0.99907687  0.45216130
   0.88893843  0.11054655  0.34011240
   0.77748259  0.22166336  0.22697284
   0.99769384  0.33267408  0.45313847
   0.22192268  0.44356379  0.33976224
   0.11051568  0.55543537  0.22694798
   0.55497650  0.44362319  0.33978013
   0.44427076  0.55531507  0.22667460
   0.66883446  0.33266410  0.45303179
   0.88847763  0.44355800  0.34030562
   0.77816786  0.55545468  0.22697169
   0.99959805  0.66572884  0.45288342
   0.22194880  0.77710907  0.34028813
   0.11052908  0.88782916  0.22696247
   0.33265588  0.66797556  0.45302874
   0.55501113  0.77663523  0.34008654
   0.44428411  0.88848420  0.22695857
   0.66848227  0.66773443  0.45314461
   0.88847337  0.77708054  0.34033076
   0.77747792  0.88849548  0.22696831
   0.33298905  0.33242251  0.46060785
   0.33318351  0.33123560  0.57523947
   0.38586724  0.48576288  0.59503884
   0.43522179  0.27856079  0.59473426
   0.17871364  0.22919059  0.59492044
Direct configuration=     8
   0.22222222  0.11111111  0.00000000
   0.22222222  0.44444444  0.00000000
   0.22222222  0.77777778  0.00000000
   0.55555556  0.11111111  0.00000000
   0.55555556  0.44444444  0.00000000
   0.55555556  0.77777778  0.00000000
   0.88888889  0.11111111  0.00000000
   0.88888889  0.44444444  0.00000000
   0.88888889  0.77777778  0.00000000
   0.00000000  0.00000000  0.11363913
   0.00000000  0.33333333  0.11363913
   0.00000000  0.66666667  0.11363913
   0.33333333  0.00000000  0.11363913
   0.33333333  0.33333333  0.11363913
   0.33333333  0.66666667  0.11363913
   0.66666667  0.00000000  0.11363913
   0.66666667  0.33333333  0.11363913
   0.66666667  0.66666667  0.11363913
   0.99737274  0.99659882  0.45289359
   0.22202517  0.11060941  0.33974235
   0.11064793  0.22167751  0.22665609
   0.33273158  0.99681877  0.45295846
   0.55505439  0.11051092  0.34002229
   0.44430811  0.22166869  0.22666897
   0.66629985  0.99909132  0.45204773
   0.88888508  0.11053364  0.34003551
   0.77747709  0.22163307  0.22693853
   0.99765012  0.33268519  0.45297624
   0.22189945  0.44356094  0.33971441
   0.11056493  0.55542017  0.22687104
   0.55500546  0.44363833  0.33974190
   0.44429942  0.55534796  0.22665825
   0.66888618  0.33267478  0.45286221
   0.88855947  0.44371628  0.34015012
   0.77811421  0.55542567  0.22689314
   0.99960941  0.66575057  0.45273930
   0.22183073  0.77706373  0.34014213
   0.11057785  0.88789875  0.22688313
   0.33267227  0.66802928  0.45285597
   0.55504009  0.77669574  0.34000723
   0.44431824  0.88850572  0.22692447
   0.66853878  0.66780379  0.45297666
   0.88854226  0.77702736  0.34017300
   0.77747580  0.88853360  0.22693455
   0.33300259  0.33244194  0.46066981
   0.33309784  0.33109403  0.57511407
   0.38586202  0.48568281  0.59499629
   0.43507522  0.27860443  0.59469514
   0.17894705  0.22937861  0.59485750
Direct configuration=     9
   0.22222222  0.11111111  0.00000000
   0.22222222  0.44444444  0.00000000
   0.22222222  0.77777778  0.00000000
   0.55555556  0.11111111  0.00000000
   0.55555556  0.44444444  0.00000000
   0.55555556  0.77777778  0.00000000
   0.88888889  0.11111111  0.00000000
   0.88888889  0.44444444  0.00000000
   0.88888889  0.77777778  0.00000000
   0.00000000  0.00000000  0.11363913
   0.00000000  0.33333333  0.11363913
   0.00000000  0.66666667  0.11363913
   0.33333333  0.00000000  0.11363913
   0.33333333  0.33333333  0.11363913
   0.33333333  0.66666667  0.11363913
   0.66666667  0.00000000  0.11363913
   0.66666667  0.33333333  0.11363913
   0.66666667  0.66666667  0.11363913
   0.99727897  0.99656364  0.45256341
   0.22199046  0.11059271  0.33964602
   0.11064719  0.22168605  0.22659148
   0.33277026  0.99679863  0.45263221
   0.55512084  0.11047107  0.33987220
   0.44435876  0.22167795  0.22663333
   0.66630322  0.99912023  0.45182058
   0.88877839  0.11050781  0.33988174
   0.77746610  0.22157248  0.22686991
   0.99756267  0.33270739  0.45265178
   0.22185297  0.44355524  0.33961874
   0.11066344  0.55538976  0.22671715
   0.55506338  0.44366861  0.33966544
   0.44435673  0.55541375  0.22662555
   0.66898960  0.33269615  0.45252305
   0.88872317  0.44403283  0.33983913
   0.77800691  0.55536765  0.22673604
   0.99963212  0.66579401  0.45245106
   0.22159459  0.77697306  0.33985012
   0.11067539  0.88803794  0.22672444
   0.33270504  0.66813673  0.45251043
   0.55509800  0.77681675  0.33984862
   0.44438650  0.88854877  0.22685625
   0.66865180  0.66794250  0.45264075
   0.88868005  0.77692100  0.33985748
   0.77747155  0.88860983  0.22686702
   0.33302965  0.33248078  0.46079375
   0.33292650  0.33081088  0.57486327
   0.38585160  0.48552268  0.59491119
   0.43478207  0.27869170  0.59461689
   0.17941388  0.22975464  0.59473162
Direct configuration=    10
   0.22222222  0.11111111  0.00000000
   0.22222222  0.44444444  0.00000000
   0.22222222  0.77777778  0.00000000
   0.55555556  0.11111111  0.00000000
   0.55555556  0.44444444  0.00000000
   0.55555556  0.77777778  0.00000000
   0.88888889  0.11111111  0.00000000
   0.88888889  0.44444444  0.00000000
   0.88888889  0.77777778  0.00000000
   0.00000000  0.00000000  0.11363913
   0.00000000  0.33333333  0.11363913
   0.00000000  0.66666667  0.11363913
   0.33333333  0.00000000  0.11363913
   0.33333333  0.33333333  0.11363913
   0.33333333  0.66666667  0.11363913
   0.66666667  0.00000000  0.11363913
   0.66666667  0.33333333  0.11363913
   0.66666667  0.66666667  0.11363913
   0.99732561  0.99658113  0.45272764
   0.22200773  0.11060102  0.33969393
   0.11064756  0.22168181  0.22662361
   0.33275102  0.99680865  0.45279448
   0.55508779  0.11049089  0.33994685
   0.44433357  0.22167335  0.22665106
   0.66630155  0.99910585  0.45193356
   0.88883146  0.11052066  0.33995822
   0.77747157  0.22160261  0.22690404
   0.99760616  0.33269635  0.45281316
   0.22187609  0.44355808  0.33966632
   0.11061444  0.55540488  0.22679369
   0.55503457  0.44365355  0.33970347
   0.44432823  0.55538103  0.22664181
   0.66893816  0.33268552  0.45269174
   0.88864175  0.44387539  0.33999381
   0.77806028  0.55539651  0.22681418
   0.99962083  0.66577240  0.45259443
   0.22171204  0.77701815  0.33999536
   0.11062687  0.88796871  0.22680337
   0.33268874  0.66808329  0.45268229
   0.55506919  0.77675656  0.33992751
   0.44435255  0.88852736  0.22689018
   0.66859558  0.66787351  0.45280783
   0.88861151  0.77697390  0.34001441
   0.77747366  0.88857191  0.22690061
   0.33301619  0.33246146  0.46073210
   0.33301172  0.33095171  0.57498802
   0.38585678  0.48560233  0.59495352
   0.43492788  0.27864830  0.59465581
   0.17918169  0.22956761  0.59479423
Direct configuration=    11
   0.22222222  0.11111111  0.00000000
   0.22222222  0.44444444  0.00000000
   0.22222222  0.77777778  0.00000000
   0.55555556  0.11111111  0.00000000
   0.55555556  0.44444444  0.00000000
   0.55555556  0.77777778  0.00000000
   0.88888889  0.11111111  0.00000000
   0.88888889  0.44444444  0.00000000
   0.88888889  0.77777778  0.00000000
   0.00000000  0.00000000  0.11363913
   0.00000000  0.33333333  0.11363913
   0.00000000  0.66666667  0.11363913
   0.33333333  0.00000000  0.11363913
   0.33333333  0.33333333  0.11363913
   0.33333333  0.66666667  0.11363913
   0.66666667  0.00000000  0.11363913
   0.66666667  0.33333333  0.11363913
   0.66666667  0.66666667  0.11363913
   0.99731574  0.99657794  0.45268361
   0.22200787  0.11060733  0.33967412
   0.11065358  0.22168614  0.22661777
   0.33275543  0.99680723  0.45275113
   0.55509418  0.11048876  0.33992105
   0.44433727  0.22167784  0.22664864
   0.66630222  0.99911018  0.45190414
   0.88882232  0.11051997  0.33993191
   0.77747164  0.22159815  0.22689400
   0.99759690  0.33270072  0.45276982
   0.22187472  0.44355478  0.33964627
   0.11062831  0.55540042  0.22677371
   0.55503477  0.44365441  0.33968552
   0.44433327  0.55538372  0.22663955
   0.66895084  0.33268978  0.45264698
   0.88865602  0.44390236  0.33994938
   0.77804550  0.55538896  0.22679369
   0.99962407  0.66577893  0.45255431
   0.22169525  0.77701399  0.33995294
   0.11063979  0.88798845  0.22678280
   0.33269239  0.66809670  0.45263656
   0.55507470  0.77676762  0.33990107
   0.44435963  0.88853223  0.22688009
   0.66860960  0.66788989  0.45276303
   0.88862280  0.77696779  0.33996933
   0.77747479  0.88858016  0.22689060
   0.33301863  0.33246548  0.46073227
   0.33306240  0.33102847  0.57497262
   0.38583892  0.48553484  0.59493013
   0.43490625  0.27864328  0.59464392
   0.17916975  0.22956665  0.59478139
Direct configuration=    12
   0.22222222  0.11111111  0.00000000
   0.22222222  0.44444444  0.00000000
   0.22222222  0.77777778  0.00000000
   0.55555556  0.11111111  0.00000000
   0.55555556  0.44444444  0.00000000
   0.55555556  0.77777778  0.00000000
   0.88888889  0.11111111  0.00000000
   0.88888889  0.44444444  0.00000000
   0.88888889  0.77777778  0.00000000
   0.00000000  0.00000000  0.11363913
   0.00000000  0.33333333  0.11363913
   0.00000000  0.66666667  0.11363913
   0.33333333  0.00000000  0.11363913
   0.33333333  0.33333333  0.11363913
   0.33333333  0.66666667  0.11363913
   0.66666667  0.00000000  0.11363913
   0.66666667  0.33333333  0.11363913
   0.66666667  0.66666667  0.11363913
   0.99728615  0.99656837  0.45255154
   0.22200831  0.11062626  0.33961468
   0.11067166  0.22169914  0.22660025
   0.33276867  0.99680299  0.45262107
   0.55511336  0.11048236  0.33984364
   0.44434836  0.22169134  0.22664140
   0.66630423  0.99912316  0.45181589
   0.88879489  0.11051793  0.33985299
   0.77747187  0.22158478  0.22686385
   0.99756912  0.33271385  0.45263982
   0.22187064  0.44354487  0.33958610
   0.11066991  0.55538704  0.22671377
   0.55503538  0.44365699  0.33963169
   0.44434840  0.55539180  0.22663278
   0.66898890  0.33270254  0.45251270
   0.88869884  0.44398327  0.33981607
   0.77800118  0.55536630  0.22673224
   0.99963381  0.66579850  0.45243398
   0.22164486  0.77700149  0.33982570
   0.11067854  0.88804767  0.22672111
   0.33270334  0.66813693  0.45249934
   0.55509120  0.77680078  0.33982174
   0.44438090  0.88854686  0.22684984
   0.66865164  0.66793903  0.45262862
   0.88865667  0.77694944  0.33983406
   0.77747818  0.88860492  0.22686059
   0.33302596  0.33247754  0.46073276
   0.33321442  0.33125872  0.57492644
   0.38578532  0.48533239  0.59485998
   0.43484136  0.27862823  0.59460825
   0.17913396  0.22956375  0.59474286
Direct configuration=    13
   0.22222222  0.11111111  0.00000000
   0.22222222  0.44444444  0.00000000
   0.22222222  0.77777778  0.00000000
   0.55555556  0.11111111  0.00000000
   0.55555556  0.44444444  0.00000000
   0.55555556  0.77777778  0.00000000
   0.88888889  0.11111111  0.00000000
   0.88888889  0.44444444  0.00000000
   0.88888889  0.77777778  0.00000000
   0.00000000  0.00000000  0.11363913
   0.00000000  0.33333333  0.11363913
   0.00000000  0.66666667  0.11363913
   0.33333333  0.00000000  0.11363913
   0.33333333  0.33333333  0.11363913
   0.33333333  0.66666667  0.11363913
   0.66666667  0.00000000  0.11363913
   0.66666667  0.33333333  0.11363913
   0.66666667  0.66666667  0.11363913
   0.99722697  0.99654923  0.45228739
   0.22200919  0.11066412  0.33949580
   0.11070783  0.22172513  0.22656519
   0.33279514  0.99679451  0.45236096
   0.55515171  0.11046958  0.33968882
   0.44437056  0.22171833  0.22662691
   0.66630827  0.99914913  0.45163939
   0.88874003  0.11051384  0.33969513
   0.77747233  0.22155803  0.22680356
   0.99751356  0.33274012  0.45237980
   0.22186246  0.44352507  0.33946576
   0.11075310  0.55536028  0.22659388
   0.55503659  0.44366214  0.33952401
   0.44437866  0.55540797  0.22661923
   0.66906502  0.33272805  0.45224413
   0.88878447  0.44414508  0.33954946
   0.77791253  0.55532097  0.22660933
   0.99965329  0.66583765  0.45219331
   0.22154408  0.77697649  0.33957122
   0.11075605  0.88816611  0.22659772
   0.33272524  0.66821739  0.45222492
   0.55512422  0.77686711  0.33966308
   0.44442343  0.88857610  0.22678933
   0.66873573  0.66803732  0.45235982
   0.88872440  0.77691276  0.33956353
   0.77748495  0.88865444  0.22680057
   0.33304062  0.33250165  0.46073375
   0.33351847  0.33171923  0.57483407
   0.38567812  0.48492748  0.59471968
   0.43471158  0.27859813  0.59453691
   0.17906236  0.22955796  0.59466582
Direct configuration=    14
   0.22222222  0.11111111  0.00000000
   0.22222222  0.44444444  0.00000000
   0.22222222  0.77777778  0.00000000
   0.55555556  0.11111111  0.00000000
   0.55555556  0.44444444  0.00000000
   0.55555556  0.77777778  0.00000000
   0.88888889  0.11111111  0.00000000
   0.88888889  0.44444444  0.00000000
   0.88888889  0.77777778  0.00000000
   0.00000000  0.00000000  0.11363913
   0.00000000  0.33333333  0.11363913
   0.00000000  0.66666667  0.11363913
   0.33333333  0.00000000  0.11363913
   0.33333333  0.33333333  0.11363913
   0.33333333  0.66666667  0.11363913
   0.66666667  0.00000000  0.11363913
   0.66666667  0.33333333  0.11363913
   0.66666667  0.66666667  0.11363913
   0.99726299  0.99656088  0.45244815
   0.22200865  0.11064107  0.33956815
   0.11068582  0.22170931  0.22658653
   0.33277903  0.99679968  0.45251927
   0.55512837  0.11047736  0.33978304
   0.44435705  0.22170191  0.22663573
   0.66630581  0.99913333  0.45174681
   0.88877342  0.11051633  0.33979120
   0.77747205  0.22157431  0.22684025
   0.99754738  0.33272413  0.45253805
   0.22186744  0.44353712  0.33953900
   0.11070247  0.55537657  0.22666685
   0.55503585  0.44365901  0.33958954
   0.44436024  0.55539813  0.22662747
   0.66901870  0.33271252  0.45240758
   0.88873235  0.44404660  0.33971172
   0.77796648  0.55534856  0.22668414
   0.99964143  0.66581383  0.45233978
   0.22160542  0.77699170  0.33972610
   0.11070888  0.88809403  0.22667282
   0.33271191  0.66816842  0.45239194
   0.55510412  0.77682674  0.33975964
   0.44439754  0.88855830  0.22682616
   0.66868455  0.66797750  0.45252342
   0.88868318  0.77693508  0.33972818
   0.77748083  0.88862430  0.22683710
   0.33303170  0.33248697  0.46073315
   0.33333342  0.33143895  0.57489029
   0.38574336  0.48517391  0.59480507
   0.43479056  0.27861645  0.59458033
   0.17910593  0.22956148  0.59471271
Direct configuration=    15
   0.22222222  0.11111111  0.00000000
   0.22222222  0.44444444  0.00000000
   0.22222222  0.77777778  0.00000000
   0.55555556  0.11111111  0.00000000
   0.55555556  0.44444444  0.00000000
   0.55555556  0.77777778  0.00000000
   0.88888889  0.11111111  0.00000000
   0.88888889  0.44444444  0.00000000
   0.88888889  0.77777778  0.00000000
   0.00000000  0.00000000  0.11363913
   0.00000000  0.33333333  0.11363913
   0.00000000  0.66666667  0.11363913
   0.33333333  0.00000000  0.11363913
   0.33333333  0.33333333  0.11363913
   0.33333333  0.66666667  0.11363913
   0.66666667  0.00000000  0.11363913
   0.66666667  0.33333333  0.11363913
   0.66666667  0.66666667  0.11363913
   0.99726078  0.99656335  0.45239041
   0.22201935  0.11066742  0.33952862
   0.11070520  0.22172092  0.22658169
   0.33278183  0.99680332  0.45246273
   0.55513151  0.11048254  0.33973742
   0.44435568  0.22171395  0.22663362
   0.66630760  0.99914027  0.45170943
   0.88877369  0.11052174  0.33974511
   0.77747588  0.22157748  0.22682178
   0.99754665  0.33273445  0.45248127
   0.22187802  0.44352832  0.33949903
   0.11071983  0.55537205  0.22664042
   0.55501771  0.44365273  0.33955108
   0.44436136  0.55538954  0.22662504
   0.66902795  0.33272205  0.45235073
   0.88873241  0.44404376  0.33965047
   0.77795120  0.55534218  0.22665718
   0.99964673  0.66582460  0.45228155
   0.22161987  0.77700544  0.33966606
   0.11072265  0.88811760  0.22664606
   0.33271408  0.66817879  0.45233336
   0.55510679  0.77683059  0.33971439
   0.44440223  0.88856289  0.22680769
   0.66869500  0.66798914  0.45246557
   0.88868037  0.77694733  0.33966577
   0.77748642  0.88863002  0.22681859
   0.33303480  0.33249353  0.46068900
   0.33332316  0.33142328  0.57489705
   0.38577697  0.48524062  0.59478120
   0.43481499  0.27858828  0.59456066
   0.17905689  0.22954359  0.59468597
Direct configuration=    16
   0.22222222  0.11111111  0.00000000
   0.22222222  0.44444444  0.00000000
   0.22222222  0.77777778  0.00000000
   0.55555556  0.11111111  0.00000000
   0.55555556  0.44444444  0.00000000
   0.55555556  0.77777778  0.00000000
   0.88888889  0.11111111  0.00000000
   0.88888889  0.44444444  0.00000000
   0.88888889  0.77777778  0.00000000
   0.00000000  0.00000000  0.11363913
   0.00000000  0.33333333  0.11363913
   0.00000000  0.66666667  0.11363913
   0.33333333  0.00000000  0.11363913
   0.33333333  0.33333333  0.11363913
   0.33333333  0.66666667  0.11363913
   0.66666667  0.00000000  0.11363913
   0.66666667  0.33333333  0.11363913
   0.66666667  0.66666667  0.11363913
   0.99725414  0.99657076  0.45221720
   0.22205143  0.11074646  0.33941002
   0.11076334  0.22175576  0.22656718
   0.33279024  0.99681427  0.45229313
   0.55514095  0.11049808  0.33960056
   0.44435157  0.22175008  0.22662729
   0.66631294  0.99916108  0.45159727
   0.88877448  0.11053798  0.33960681
   0.77748737  0.22158698  0.22676635
   0.99754447  0.33276542  0.45231093
   0.22190976  0.44350192  0.33937912
   0.11077190  0.55535850  0.22656116
   0.55496330  0.44363392  0.33943570
   0.44436472  0.55536376  0.22661775
   0.66905571  0.33275063  0.45218017
   0.88873256  0.44403524  0.33946673
   0.77790533  0.55532305  0.22657631
   0.99966263  0.66585692  0.45210683
   0.22166323  0.77704664  0.33948592