       N       E                     dE             d eps       ncg     rms          rms(c)
DAV:   1     0.515314763826E+04    0.51531E+04   -0.22415E+05  5424   0.161E+03
DAV:   2     0.359963113025E+03   -0.47932E+04   -0.44814E+04  5376   0.443E+02
DAV:   3    -0.286010284116E+03   -0.64597E+03   -0.60979E+03  6048   0.158E+02
DAV:   4    -0.318564788645E+03   -0.32555E+02   -0.32270E+02  6528   0.346E+01
DAV:   5    -0.319157792924E+03   -0.59300E+00   -0.59239E+00  6432   0.544E+00    0.101E+02
DAV:   6    -0.466818570094E+03   -0.14766E+03   -0.58785E+02  5952   0.115E+02    0.164E+02
DAV:   7    -0.290065332627E+03    0.17675E+03   -0.27322E+02  6336   0.751E+01    0.611E+01
DAV:   8    -0.289295588697E+03    0.76974E+00   -0.85960E+01  6912   0.324E+01    0.310E+01
DAV:   9    -0.320347638527E+03   -0.31052E+02   -0.15741E+02  6480   0.373E+01    0.751E+01
DAV:  10    -0.299784218404E+03    0.20563E+02   -0.23465E+02  6096   0.346E+01    0.235E+01
DAV:  11    -0.300878906529E+03   -0.10947E+01   -0.43356E+01  7008   0.224E+01    0.243E+01
DAV:  12    -0.299047888350E+03    0.18310E+01   -0.25058E+01  6432   0.140E+01    0.875E+00
DAV:  13    -0.299490303987E+03   -0.44242E+00   -0.24371E+00  6480   0.505E+00    0.655E+00
DAV:  14    -0.299617286128E+03   -0.12698E+00   -0.19375E+00  6144   0.433E+00    0.884E+00
DAV:  15    -0.299563459664E+03    0.53826E-01   -0.88601E-01  6288   0.242E+00    0.308E+00
DAV:  16    -0.299634005253E+03   -0.70546E-01   -0.10523E-01  6576   0.960E-01    0.149E+00
DAV:  17    -0.299657272358E+03   -0.23267E-01   -0.20751E-02  6624   0.394E-01    0.114E+00
DAV:  18    -0.299667346036E+03   -0.10074E-01   -0.62459E-03  6960   0.245E-01    0.882E-01
DAV:  19    -0.299673538704E+03   -0.61927E-02   -0.50466E-03  6912   0.248E-01    0.593E-01
DAV:  20    -0.299677053483E+03   -0.35148E-02   -0.48522E-03  7440   0.250E-01    0.272E-01
DAV:  21    -0.299678797226E+03   -0.17437E-02   -0.21957E-03  7152   0.100E-01    0.179E-01
DAV:  22    -0.299679365379E+03   -0.56815E-03   -0.25911E-04  6912   0.375E-02    0.128E-01
DAV:  23    -0.299679814471E+03   -0.44909E-03   -0.19093E-04  6768   0.387E-02    0.666E-02
DAV:  24    -0.299680156875E+03   -0.34240E-03   -0.16389E-04  6864   0.400E-02    0.253E-02
DAV:  25    -0.299680230103E+03   -0.73229E-04   -0.42880E-05  5952   0.141E-02    0.207E-02
DAV:  26    -0.299680277926E+03   -0.47823E-04   -0.30595E-06  4032   0.581E-03    0.156E-02
DAV:  27    -0.299680355544E+03   -0.77618E-04   -0.44462E-06  3888   0.683E-03    0.949E-03
DAV:  28    -0.299680426219E+03   -0.70676E-04   -0.38410E-06  3840   0.546E-03    0.468E-03
DAV:  29    -0.299680465895E+03   -0.39676E-04   -0.20638E-06  3792   0.300E-03    0.363E-03
DAV:  30    -0.299680500402E+03   -0.34507E-04   -0.82688E-07  3840   0.235E-03    0.230E-03
DAV:  31    -0.299680526114E+03   -0.25711E-04   -0.56602E-07  3840   0.171E-03    0.136E-03
DAV:  32    -0.299680539572E+03   -0.13458E-04   -0.24065E-07  3840   0.997E-04    0.739E-04
DAV:  33    -0.299680540621E+03   -0.10494E-05   -0.39287E-08  3840   0.492E-04
   1 F= -.29968054E+03 E0= -.29968054E+03  d E =-.299681E+03  mag=     0.3482
       N       E                     dE             d eps       ncg     rms          rms(c)
DAV:   1    -0.299144638134E+03    0.53590E+00   -0.24197E+01  6576   0.445E+01    0.300E+00
DAV:   2    -0.299994649845E+03   -0.85001E+00   -0.83590E+00  6528   0.485E+00    0.390E+00
DAV:   3    -0.300000461076E+03   -0.58112E-02   -0.17209E+00  6480   0.397E+00    0.453E+00
DAV:   4    -0.299942508922E+03    0.57952E-01   -0.46245E-01  6288   0.227E+00    0.165E+00
DAV:   5    -0.299924258745E+03    0.18250E-01   -0.75188E-02  6432   0.100E+00    0.988E-01
DAV:   6    -0.299928643923E+03   -0.43852E-02   -0.25708E-02  6384   0.656E-01    0.933E-01
DAV:   7    -0.299924461936E+03    0.41820E-02   -0.30282E-02  6528   0.853E-01    0.657E-01
DAV:   8    -0.299921603367E+03    0.28586E-02   -0.69124E-03  7152   0.405E-01    0.282E-01
DAV:   9    -0.299921436583E+03    0.16678E-03   -0.17891E-03  6816   0.159E-01    0.214E-01
DAV:  10    -0.299920836154E+03    0.60043E-03   -0.72861E-04  6432   0.108E-01    0.166E-01
DAV:  11    -0.299919853013E+03    0.98314E-03   -0.56142E-05  7152   0.732E-02    0.141E-01
DAV:  12    -0.299919282949E+03    0.57006E-03   -0.29222E-04  7728   0.553E-02    0.111E-01
DAV:  13    -0.299918161557E+03    0.11214E-02   -0.46496E-04  6864   0.726E-02    0.775E-02
DAV:  14    -0.299916787711E+03    0.13738E-02   -0.56910E-04  7536   0.675E-02    0.746E-02
DAV:  15    -0.299915934156E+03    0.85356E-03   -0.15789E-04  7248   0.270E-02    0.668E-02
DAV:  16    -0.299914326866E+03    0.16073E-02   -0.25533E-04  7056   0.454E-02    0.610E-02
DAV:  17    -0.299913081382E+03    0.12455E-02   -0.16159E-04  7536   0.377E-02    0.531E-02
DAV:  18    -0.299913237397E+03   -0.15602E-03   -0.16051E-04  5856   0.190E-02    0.888E-02
DAV:  19    -0.299913186589E+03    0.50808E-04   -0.54901E-06  4320   0.551E-03    0.863E-02
DAV:  20    -0.299913039160E+03    0.14743E-03   -0.56196E-06  3840   0.752E-03    0.803E-02
DAV:  21    -0.299912930780E+03    0.10838E-03   -0.17113E-05  4272   0.102E-02    0.666E-02
DAV:  22    -0.299911827907E+03    0.11029E-02   -0.19530E-04  7008   0.391E-02    0.414E-02
DAV:  23    -0.299911070113E+03    0.75779E-03   -0.90571E-05  6720   0.237E-02    0.297E-02
DAV:  24    -0.299910418917E+03    0.65120E-03   -0.56413E-05  5856   0.196E-02    0.200E-02
DAV:  25    -0.299910351947E+03    0.66971E-04   -0.10915E-05  4800   0.666E-03    0.145E-02
DAV:  26    -0.299910402556E+03   -0.50609E-04   -0.25614E-06  3840   0.340E-03    0.121E-02
DAV:  27    -0.299910558030E+03   -0.15547E-03   -0.26966E-06  3792   0.505E-03    0.846E-03
DAV:  28    -0.299910683248E+03   -0.12522E-03   -0.25078E-06  3600   0.410E-03    0.517E-03
DAV:  29    -0.299910805713E+03   -0.12246E-03   -0.24561E-06  3552   0.370E-03    0.193E-03
DAV:  30    -0.299910841145E+03   -0.35432E-04   -0.75682E-07  3552   0.162E-03    0.107E-03
DAV:  31    -0.299910835704E+03    0.54411E-05   -0.80159E-08  3552   0.585E-04
   2 F= -.29991084E+03 E0= -.29991084E+03  d E =-.230295E+00  mag=     1.3917
       N       E                     dE             d eps       ncg     rms          rms(c)
DAV:   1    -0.298972640472E+03    0.93820E+00   -0.30526E+01  6624   0.489E+01    0.359E+00
DAV:   2    -0.300119894512E+03   -0.11473E+01   -0.10728E+01  6528   0.567E+00    0.510E+00
DAV:   3    -0.300060391145E+03    0.59503E-01   -0.22971E+00  6576   0.460E+00    0.515E+00
DAV:   4    -0.299956730891E+03    0.10366E+00   -0.56583E-01  6288   0.246E+00    0.149E+00
DAV:   5    -0.299949933686E+03    0.67972E-02   -0.63879E-02  6720   0.118E+00    0.138E+00
DAV:   6    -0.299948216280E+03    0.17174E-02   -0.31197E-02  6720   0.725E-01    0.817E-01
DAV:   7    -0.299950505134E+03   -0.22889E-02   -0.45496E-02  6576   0.737E-01    0.120E+00
DAV:   8    -0.299945463061E+03    0.50421E-02   -0.47187E-02  6432   0.690E-01    0.346E-01
DAV:   9    -0.299943954794E+03    0.15083E-02   -0.25481E-03  6576   0.177E-01    0.213E-01
DAV:  10    -0.299943811321E+03    0.14347E-03   -0.12229E-03  6336   0.152E-01    0.173E-01
DAV:  11    -0.299943066215E+03    0.74511E-03   -0.62204E-04  6432   0.106E-01    0.665E-02
DAV:  12    -0.299942868628E+03    0.19759E-03   -0.16408E-04  6432   0.295E-02    0.338E-02
DAV:  13    -0.299942740887E+03    0.12774E-03   -0.19749E-05  5472   0.108E-02    0.229E-02
DAV:  14    -0.299942558917E+03    0.18197E-03   -0.99548E-06  4656   0.941E-03    0.104E-02
DAV:  15    -0.299942448183E+03    0.11073E-03   -0.43252E-06  3888   0.515E-03    0.561E-03
DAV:  16    -0.299942371787E+03    0.76396E-04   -0.17573E-06  3840   0.296E-03    0.249E-03
DAV:  17    -0.299942337853E+03    0.33934E-04   -0.54055E-07  3840   0.158E-03    0.130E-03
DAV:  18    -0.299942326898E+03    0.10955E-04   -0.11149E-07  3840   0.869E-04    0.593E-04
DAV:  19    -0.299942323765E+03    0.31331E-05   -0.32947E-08  3744   0.458E-04
   3 F= -.29994232E+03 E0= -.29994232E+03  d E =-.261783E+00  mag=     2.6004
       N       E                     dE             d eps       ncg     rms          rms(c)
DAV:   1    -0.299632170610E+03    0.31016E+00   -0.11716E+01  6768   0.298E+01    0.198E+00
DAV:   2    -0.299990770917E+03   -0.35860E+00   -0.37065E+00  6336   0.314E+00    0.999E-01
DAV:   3    -0.299995719309E+03   -0.49484E-02   -0.97361E-02  6720   0.987E-01    0.125E+00
DAV:   4    -0.299992449647E+03    0.32697E-02   -0.57427E-02  6528   0.822E-01    0.828E-01
DAV:   5    -0.299987153131E+03    0.52965E-02   -0.26405E-02  6288   0.562E-01    0.766E-01
DAV:   6    -0.299990590518E+03   -0.34374E-02   -0.23548E-02  6336   0.544E-01    0.636E-01
DAV:   7    -0.299983184542E+03    0.74060E-02   -0.11627E-02  6288   0.456E-01    0.263E-01
DAV:   8    -0.299981824443E+03    0.13601E-02   -0.17309E-03  7344   0.147E-01    0.124E-01
DAV:   9    -0.299981597727E+03    0.22672E-03   -0.60868E-04  6768   0.127E-01    0.140E-01
DAV:  10    -0.299980657026E+03    0.94070E-03   -0.43725E-04  6480   0.119E-01    0.839E-02
DAV:  11    -0.299980215095E+03    0.44193E-03   -0.13230E-04  7344   0.397E-02    0.285E-02
DAV:  12    -0.299980043562E+03    0.17153E-03   -0.28339E-05  5904   0.142E-02    0.160E-02
DAV:  13    -0.299979960842E+03    0.82720E-04   -0.28457E-06  3792   0.426E-03    0.109E-02
DAV:  14    -0.299979862300E+03    0.98542E-04   -0.15714E-06  3744   0.349E-03    0.465E-03
DAV:  15    -0.299979814884E+03    0.47416E-04   -0.80142E-07  3552   0.192E-03    0.161E-03
DAV:  16    -0.299979803349E+03    0.11535E-04   -0.20686E-07  3552   0.104E-03    0.108E-03
DAV:  17    -0.299979805236E+03   -0.18872E-05   -0.39090E-08  3312   0.538E-04
   4 F= -.29997981E+03 E0= -.29997981E+03  d E =-.374815E-01  mag=     3.0634
       N       E                     dE             d eps       ncg     rms          rms(c)
DAV:   1    -0.299976810046E+03    0.29933E-02   -0.87088E-02  6960   0.261E+00    0.164E-01
DAV:   2    -0.299979059999E+03   -0.22500E-02   -0.26970E-02  6144   0.274E-01    0.833E-02
DAV:   3    -0.299978653346E+03    0.40665E-03   -0.12236E-03  6672   0.116E-01    0.149E-01
DAV:   4    -0.299978929337E+03   -0.27599E-03   -0.52680E-04  6768   0.829E-02    0.532E-02
DAV:   5    -0.299978475595E+03    0.45374E-03   -0.11198E-04  6336   0.440E-02    0.619E-02
DAV:   6    -0.299978757352E+03   -0.28176E-03   -0.14877E-04  6240   0.514E-02    0.452E-02
DAV:   7    -0.299978429690E+03    0.32766E-03   -0.69676E-05  5664   0.352E-02    0.218E-02
DAV:   8    -0.299978460059E+03   -0.30368E-04   -0.15241E-05  3456   0.186E-02    0.151E-02
DAV:   9    -0.299978324932E+03    0.13513E-03   -0.81491E-06  3264   0.169E-02    0.804E-03
DAV:  10    -0.299978314362E+03    0.10570E-04   -0.15131E-06  3264   0.554E-03    0.398E-03
DAV:  11    -0.299978293045E+03    0.21317E-04   -0.54512E-07  3264   0.210E-03    0.228E-03
DAV:  12    -0.299978276171E+03    0.16874E-04   -0.20650E-07  3120   0.135E-03    0.934E-04
DAV:  13    -0.299978271279E+03    0.48912E-05   -0.57466E-08  2976   0.641E-04
   5 F= -.29997827E+03 E0= -.29997827E+03  d E =-.359475E-01  mag=     3.0943
       N       E                     dE             d eps       ncg     rms          rms(c)
DAV:   1    -0.299949222644E+03    0.29054E-01   -0.82033E-01  7680   0.939E+00    0.506E-01
DAV:   2    -0.299982743209E+03   -0.33521E-01   -0.34051E-01  5856   0.883E-01    0.299E-01
DAV:   3    -0.299984692054E+03   -0.19488E-02   -0.15108E-02  7056   0.426E-01    0.448E-01
DAV:   4    -0.299983645837E+03    0.10462E-02   -0.49473E-03  6432   0.284E-01    0.193E-01
DAV:   5    -0.299983497707E+03    0.14813E-03   -0.12519E-03  6480   0.158E-01    0.226E-01
DAV:   6    -0.299983089625E+03    0.40808E-03   -0.14357E-03  6336   0.169E-01    0.146E-01
DAV:   7    -0.299984268955E+03   -0.11793E-02   -0.81936E-04  6336   0.103E-01    0.104E-01
DAV:   8    -0.299983155940E+03    0.11130E-02   -0.54505E-04  6192   0.104E-01    0.845E-02
DAV:   9    -0.299983623374E+03   -0.46743E-03   -0.14742E-04  6192   0.649E-02    0.147E-02
DAV:  10    -0.299983620269E+03    0.31057E-05   -0.91682E-06  3744   0.737E-03
   6 F= -.29998362E+03 E0= -.29998362E+03  d E =-.534899E-02  mag=     3.0823
       N       E                     dE             d eps       ncg     rms          rms(c)
DAV:   1    -0.299980608088E+03    0.30153E-02   -0.88912E-02  7680   0.306E+00    0.168E-01
DAV:   2    -0.299984242185E+03   -0.36341E-02   -0.36862E-02  5856   0.287E-01    0.921E-02
DAV:   3    -0.299984500376E+03   -0.25819E-03   -0.13426E-03  7248   0.122E-01    0.116E-01
DAV:   4    -0.299984467004E+03    0.33372E-04   -0.37984E-04  6528   0.952E-02    0.629E-02
DAV:   5    -0.299984090632E+03    0.37637E-03   -0.14780E-04  6432   0.445E-02    0.710E-02
DAV:   6    -0.299984478914E+03   -0.38828E-03   -0.12007E-04  6240   0.534E-02    0.349E-02
DAV:   7    -0.299984496717E+03   -0.17802E-04   -0.41853E-05  4944   0.308E-02    0.271E-02
DAV:   8    -0.299984275453E+03    0.22126E-03   -0.51275E-05  4704   0.236E-02    0.323E-02
DAV:   9    -0.299984452988E+03   -0.17753E-03   -0.22356E-05  3072   0.182E-02    0.484E-03
DAV:  10    -0.299984443234E+03    0.97543E-05   -0.12838E-06  2976   0.282E-03
   7 F= -.29998444E+03 E0= -.29998444E+03  d E =-.617195E-02  mag=     3.0779
       N       E                     dE             d eps       ncg     rms          rms(c)
DAV:   1    -0.299969718831E+03    0.14734E-01   -0.35537E-01  7680   0.611E+00    0.333E-01
DAV:   2    -0.299984251769E+03   -0.14533E-01   -0.14731E-01  5712   0.574E-01    0.191E-01
DAV:   3    -0.299985085028E+03   -0.83326E-03   -0.61416E-03  7104   0.252E-01    0.278E-01
DAV:   4    -0.299984691037E+03    0.39399E-03   -0.19864E-03  6432   0.176E-01    0.126E-01
DAV:   5    -0.299984639342E+03    0.51695E-04   -0.53154E-04  6672   0.994E-02    0.146E-01
DAV:   6    -0.299984371342E+03    0.26800E-03   -0.60260E-04  6240   0.113E-01    0.930E-02
DAV:   7    -0.299985113469E+03   -0.74213E-03   -0.33267E-04  6336   0.656E-02    0.657E-02
DAV:   8    -0.299984395330E+03    0.71814E-03   -0.22957E-04  6096   0.660E-02    0.563E-02
DAV:   9    -0.299984724609E+03   -0.32928E-03   -0.67078E-05  5472   0.425E-02    0.939E-03
DAV:  10    -0.299984719305E+03    0.53036E-05   -0.39760E-06  3216   0.520E-03
   8 F= -.29998472E+03 E0= -.29998472E+03  d E =-.644803E-02  mag=     3.0690
       N       E                     dE             d eps       ncg     rms          rms(c)
DAV:   1    -0.299980716806E+03    0.40078E-02   -0.10309E-01  7680   0.328E+00    0.177E-01
DAV:   2    -0.299984847948E+03   -0.41311E-02   -0.42620E-02  5712   0.308E-01    0.105E-01
DAV:   3    -0.299984955377E+03   -0.10743E-03   -0.19592E-03  6816   0.137E-01    0.169E-01
DAV:   4    -0.299984900649E+03    0.54729E-04   -0.66397E-04  6432   0.963E-02    0.662E-02
DAV:   5    -0.299984688056E+03    0.21259E-03   -0.17025E-04  6336   0.535E-02    0.828E-02
DAV:   6    -0.299985071873E+03   -0.38382E-03   -0.21155E-04  5904   0.588E-02    0.482E-02
DAV:   7    -0.299984658010E+03    0.41386E-03   -0.77297E-05  5808   0.352E-02    0.295E-02
DAV:   8    -0.299984959038E+03   -0.30103E-03   -0.43744E-05  4368   0.343E-02    0.270E-02
DAV:   9    -0.299984798060E+03    0.16098E-03   -0.16248E-05  3696   0.225E-02    0.529E-03
DAV:  10    -0.299984802255E+03   -0.41960E-05   -0.15618E-06  2832   0.314E-03
   9 F= -.29998480E+03 E0= -.29998480E+03  d E =-.653098E-02  mag=     3.0731
       N       E                     dE             d eps       ncg     rms          rms(c)
DAV:   1    -0.299982397680E+03    0.24004E-02   -0.20071E-01  7296   0.380E+00    0.253E-01
DAV:   2    -0.299988353535E+03   -0.59559E-02   -0.57283E-02  6096   0.432E-01    0.182E-01
DAV:   3    -0.299989739016E+03   -0.13855E-02   -0.57206E-03  6624   0.302E-01    0.346E-01
DAV:   4    -0.299988088607E+03    0.16504E-02   -0.27623E-03  6720   0.190E-01    0.996E-02
DAV:   5    -0.299988944273E+03   -0.85567E-03   -0.37331E-04  6624   0.984E-02    0.926E-02
DAV:   6    -0.299988468345E+03    0.47593E-03   -0.26719E-04  6240   0.824E-02    0.759E-02
DAV:   7    -0.299988665344E+03   -0.19700E-03   -0.11074E-04  6240   0.629E-02    0.257E-02
DAV:   8    -0.299988968798E+03   -0.30345E-03   -0.64916E-05  6048   0.306E-02    0.408E-02
DAV:   9    -0.299988767677E+03    0.20112E-03   -0.42904E-05  5328   0.233E-02    0.830E-03
DAV:  10    -0.299988811949E+03   -0.44272E-04   -0.20218E-06  3264   0.447E-03    0.516E-03
DAV:  11    -0.299988822033E+03   -0.10084E-04   -0.55799E-07  3264   0.184E-03    0.278E-03
DAV:  12    -0.299988840392E+03   -0.18360E-04   -0.26472E-07  3264   0.131E-03    0.111E-03
DAV:  13    -0.299988842880E+03   -0.24875E-05   -0.86458E-08  3264   0.823E-04
  10 F= -.29998884E+03 E0= -.29998884E+03  d E =-.404062E-02  mag=     3.0533
       N       E                     dE             d eps       ncg     rms          rms(c)
DAV:   1    -0.299979396621E+03    0.94438E-02   -0.43196E-01  7296   0.557E+00    0.372E-01
DAV:   2    -0.299991988891E+03   -0.12592E-01   -0.12312E-01  6096   0.635E-01    0.259E-01
DAV:   3    -0.299994268171E+03   -0.22793E-02   -0.11770E-02  6480   0.435E-01    0.493E-01
DAV:   4    -0.299991592647E+03    0.26755E-02   -0.57903E-03  6816   0.272E-01    0.146E-01
DAV:   5    -0.299992841778E+03   -0.12491E-02   -0.77020E-04  6528   0.139E-01    0.135E-01
DAV:   6    -0.299992151697E+03    0.69008E-03   -0.56163E-04  6240   0.120E-01    0.110E-01
DAV:   7    -0.299992426785E+03   -0.27509E-03   -0.22486E-04  6240   0.920E-02    0.381E-02
DAV:   8    -0.299992897704E+03   -0.47092E-03   -0.15390E-04  6480   0.475E-02    0.632E-02
DAV:   9    -0.299992591871E+03    0.30583E-03   -0.99323E-05  6048   0.354E-02    0.124E-02
DAV:  10    -0.299992655722E+03   -0.63852E-04   -0.41561E-06  3696   0.649E-03    0.772E-03
DAV:  11    -0.299992680363E+03   -0.24641E-04   -0.13194E-06  3360   0.269E-03    0.397E-03
DAV:  12    -0.299992707100E+03   -0.26737E-04   -0.56991E-07  3264   0.182E-03    0.178E-03
DAV:  13    -0.299992714546E+03   -0.74459E-05   -0.17047E-07  3264   0.116E-03
  11 F= -.29999271E+03 E0= -.29999271E+03  d E =-.791229E-02  mag=     3.0212
       N       E                     dE             d eps       ncg     rms          rms(c)
DAV:   1    -0.299992215965E+03    0.49114E-03   -0.10227E-02  7296   0.860E-01    0.569E-02
DAV:   2    -0.299992423347E+03   -0.20738E-03   -0.29207E-03  6000   0.987E-02    0.403E-02
DAV:   3    -0.299992312223E+03    0.11112E-03   -0.27463E-04  6624   0.690E-02    0.745E-02
DAV:   4    -0.299992494040E+03   -0.18182E-03   -0.13277E-04  5904   0.429E-02    0.228E-02
DAV:   5    -0.299992292829E+03    0.20121E-03   -0.19838E-05  3792   0.216E-02    0.208E-02
DAV:   6    -0.299992412090E+03   -0.11926E-03   -0.14437E-05  2976   0.209E-02    0.174E-02
DAV:   7    -0.299992353876E+03    0.58214E-04   -0.63116E-06  2880   0.148E-02    0.563E-03
DAV:   8    -0.299992292504E+03    0.61372E-04   -0.41200E-06  2688   0.767E-03    0.951E-03
DAV:   9    -0.299992332787E+03   -0.40283E-04   -0.25074E-06  2688   0.595E-03    0.164E-03
DAV:  10    -0.299992324408E+03    0.83792E-05   -0.23418E-07  2688   0.131E-03
  12 F= -.29999232E+03 E0= -.29999232E+03  d E =-.752215E-02  mag=     3.0246
       N       E                     dE             d eps       ncg     rms          rms(c)
DAV:   1    -0.299986680768E+03    0.56520E-02   -0.18784E-01  7680   0.391E+00    0.237E-01
DAV:   2    -0.299992111447E+03   -0.54307E-02   -0.62481E-02  5760   0.410E-01    0.160E-01
DAV:   3    -0.299994462223E+03   -0.23508E-02   -0.55580E-03  6480   0.240E-01    0.342E-01
DAV:   4    -0.299992457449E+03    0.20048E-02   -0.25854E-03  6624   0.170E-01    0.786E-02
DAV:   5    -0.299992431196E+03    0.26253E-04   -0.12510E-04  6480   0.510E-02    0.712E-02
DAV:   6    -0.299992176044E+03    0.25515E-03   -0.84456E-05  6336   0.436E-02    0.356E-02
DAV:   7    -0.299992503682E+03   -0.32764E-03   -0.12746E-04  6288   0.408E-02    0.548E-02
DAV:   8    -0.299992188433E+03    0.31525E-03   -0.65724E-05  5856   0.285E-02    0.773E-03
DAV:   9    -0.299992162493E+03    0.25940E-04   -0.23504E-06  3408   0.528E-03    0.660E-03
DAV:  10    -0.299992189245E+03   -0.26752E-04   -0.19395E-06  3264   0.790E-03    0.756E-03
DAV:  11    -0.299992145466E+03    0.43779E-04   -0.10103E-06  3264   0.584E-03    0.289E-03
DAV:  12    -0.299992140309E+03    0.51565E-05   -0.38595E-07  2880   0.160E-03
  13 F= -.29999214E+03 E0= -.29999214E+03  d E =0.184099E-03  mag=     3.0418
       N       E                     dE             d eps       ncg     rms          rms(c)
DAV:   1    -0.299991291601E+03    0.85386E-03   -0.25726E-02  7680   0.144E+00    0.874E-02
DAV:   2    -0.299991893852E+03   -0.60225E-03   -0.85392E-03  5760   0.151E-01    0.579E-02
DAV:   3    -0.299992541581E+03   -0.64773E-03   -0.72323E-04  6432   0.863E-02    0.123E-01
DAV:   4    -0.299991968350E+03    0.57323E-03   -0.34239E-04  6576   0.621E-02    0.293E-02
DAV:   5    -0.299992019463E+03   -0.51112E-04   -0.18761E-05  4896   0.215E-02    0.275E-02
DAV:   6    -0.299991818401E+03    0.20106E-03   -0.19256E-05  4656   0.243E-02    0.203E-02
DAV:   7    -0.299991962670E+03   -0.14427E-03   -0.14001E-05  3360   0.215E-02    0.115E-02
DAV:   8    -0.299991863482E+03    0.99188E-04   -0.47020E-06  3072   0.950E-03    0.711E-03
DAV:   9    -0.299991886989E+03   -0.23507E-04   -0.20828E-06  2736   0.565E-03    0.332E-03
DAV:  10    -0.299991874954E+03    0.12034E-04   -0.38319E-07  2688   0.228E-03    0.214E-03
DAV:  11    -0.299991867965E+03    0.69894E-05   -0.98715E-08  2688   0.913E-04
  14 F= -.29999187E+03 E0= -.29999187E+03  d E =0.456443E-03  mag=     3.0483
       N       E                     dE             d eps       ncg     rms          rms(c)
DAV:   1    -0.299988781248E+03    0.30937E-02   -0.78614E-02  7680   0.299E+00    0.154E-01
DAV:   2    -0.299991791157E+03   -0.30099E-02   -0.31925E-02  6000   0.294E-01    0.786E-02
DAV:   3    -0.299991752075E+03    0.39082E-04   -0.34535E-04  7584   0.644E-02    0.820E-02
DAV:   4    -0.299991858087E+03   -0.10601E-03   -0.22697E-04  6192   0.636E-02    0.634E-02
DAV:   5    -0.299991389108E+03    0.46898E-03   -0.16914E-04  5904   0.548E-02    0.697E-02
DAV:   6    -0.299991812712E+03   -0.42360E-03   -0.12098E-04  5616   0.573E-02    0.245E-02
DAV:   7    -0.299991596212E+03    0.21650E-03   -0.24558E-05  4608   0.246E-02    0.168E-02
DAV:   8    -0.299991680851E+03   -0.84638E-04   -0.99113E-06  3648   0.138E-02    0.959E-03
DAV:   9    -0.299991631758E+03    0.49093E-04   -0.38758E-06  3264   0.759E-03    0.558E-03
DAV:  10    -0.299991634375E+03   -0.26172E-05   -0.77775E-07  3264   0.372E-03
  15 F= -.29999163E+03 E0= -.29999163E+03  d E =0.233590E-03  mag=     3.0572
