 vasp.5.4.4.2.16052018-CX13-ORIG (build Jul 06 2020 08:41:35) complex           
  
 executed on   Pi1911m201i197avx2 date 2023.12.24  22:59:27
 running on   48 total cores
 distrk:  each k-point on   48 cores,    1 groups
 distr:  one band on NCORES_PER_BAND=   1 cores,   48 groups


--------------------------------------------------------------------------------------------------------


 INCAR:
 POTCAR:    PAW_PBE Al 04Jan2001                  
 POTCAR:    PAW_PBE Co_pv 23Apr2009               
 POTCAR:    PAW_PBE S 06Sep2000                   

 ----------------------------------------------------------------------------- 
|                                                                             |
|           W    W    AA    RRRRR   N    N  II  N    N   GGGG   !!!           |
|           W    W   A  A   R    R  NN   N  II  NN   N  G    G  !!!           |
|           W    W  A    A  R    R  N N  N  II  N N  N  G       !!!           |
|           W WW W  AAAAAA  RRRRR   N  N N  II  N  N N  G  GGG   !            |
|           WW  WW  A    A  R   R   N   NN  II  N   NN  G    G                |
|           W    W  A    A  R    R  N    N  II  N    N   GGGG   !!!           |
|                                                                             |
|      For optimal performance we recommend to set                            |
|        NCORE= 4 - approx SQRT( number of cores)                             |
|      NCORE specifies how many cores store one orbital (NPAR=cpu/NCORE).     |
|      This setting can  greatly improve the performance of VASP for DFT.     |
|      The default,   NCORE=1            might be grossly inefficient         |
|      on modern multi-core architectures or massively parallel machines.     |
|      Do your own testing !!!!                                               |
|      Unfortunately you need to use the default for GW and RPA calculations. |
|      (for HF NCORE is supported but not extensively tested yet)             |
|                                                                             |
 ----------------------------------------------------------------------------- 

 POTCAR:    PAW_PBE Al 04Jan2001                  
   VRHFIN =Al: s2p1                                                             
   LEXCH  = PE                                                                  
   EATOM  =    53.5387 eV,    3.9350 Ry                                         
                                                                                
   TITEL  = PAW_PBE Al 04Jan2001                                                
   LULTRA =        F    use ultrasoft PP ?                                      
   IUNSCR =        1    unscreen: 0-lin 1-nonlin 2-no                           
   RPACOR =    1.500    partial core radius                                     
   POMASS =   26.981; ZVAL   =    3.000    mass and valenz                      
   RCORE  =    1.900    outmost cutoff radius                                   
   RWIGS  =    2.650; RWIGS  =    1.402    wigner-seitz radius (au A)           
   ENMAX  =  240.300; ENMIN  =  180.225 eV                                      
   ICORE  =        2    local potential                                         
   LCOR   =        T    correct aug charges                                     
   LPAW   =        T    paw PP                                                  
   EAUG   =  291.052                                                            
   DEXC   =    0.000                                                            
   RMAX   =    1.939    core radius for proj-oper                               
   RAUG   =    1.300    factor for augmentation sphere                          
   RDEP   =    1.966    radius for radial grids                                 
   RDEPT  =    1.856    core radius for aug-charge                              
                                                                                
   Atomic configuration                                                         
    6 entries                                                                   
     n  l   j            E        occ.                                          
     1  0  0.50     -1511.1048   2.0000                                         
     2  0  0.50      -108.1629   2.0000                                         
     2  1  1.50       -69.6402   6.0000                                         
     3  0  0.50        -7.7528   2.0000                                         
     3  1  1.50        -2.7121   1.0000                                         
     3  2  2.50        -2.7212   0.0000                                         
   Description                                                                  
     l       E           TYP  RCUT    TYP  RCUT                                 
     0     -7.7528455     23  1.900                                             
     0     -3.3096929     23  1.900                                             
     1     -2.7120682     23  1.900                                             
     1     13.6058260     23  1.900                                             
     2     -2.7211652      7  1.900                                             
  local pseudopotential read in
  partial core-charges read in
  partial kinetic energy density read in
  atomic valenz-charges read in
  non local Contribution for L=           0  read in
    real space projection operators read in
  non local Contribution for L=           0  read in
    real space projection operators read in
  non local Contribution for L=           1  read in
    real space projection operators read in
  non local Contribution for L=           1  read in
    real space projection operators read in
    PAW grid and wavefunctions read in
 
   number of l-projection  operators is LMAX  =           4
   number of lm-projection operators is LMMAX =           8
 
 POTCAR:    PAW_PBE Co_pv 23Apr2009               
   VRHFIN =Co: 3pd7s1                                                           
   LEXCH  = PE                                                                  
   EATOM  =  2948.1334 eV,  216.6817 Ry                                         
                                                                                
   TITEL  = PAW_PBE Co_pv 23Apr2009                                             
   LULTRA =        F    use ultrasoft PP ?                                      
   IUNSCR =        1    unscreen: 0-lin 1-nonlin 2-no                           
   RPACOR =    2.000    partial core radius                                     
   POMASS =   58.933; ZVAL   =   15.000    mass and valenz                      
   RCORE  =    2.300    outmost cutoff radius                                   
   RWIGS  =    2.460; RWIGS  =    1.302    wigner-seitz radius (au A)           
   ENMAX  =  271.042; ENMIN  =  203.281 eV                                      
   ICORE  =        3    local potential                                         
   LCOR   =        T    correct aug charges                                     
   LPAW   =        T    paw PP                                                  
   EAUG   =  543.066                                                            
   DEXC   =    0.000                                                            
   RMAX   =    2.360    core radius for proj-oper                               
   RAUG   =    1.300    factor for augmentation sphere                          
   RDEP   =    2.393    radius for radial grids                                 
   RDEPT  =    1.841    core radius for aug-charge                              
                                                                                
   Atomic configuration                                                         
    8 entries                                                                   
     n  l   j            E        occ.                                          
     1  0  0.50     -7587.6674   2.0000                                         
     2  0  0.50      -893.6084   2.0000                                         
     2  1  1.50      -764.5805   6.0000                                         
     3  0  0.50       -97.5973   2.0000                                         
     3  1  1.50       -60.9648   6.0000                                         
     3  2  2.50        -4.2382   8.0000                                         
     4  0  0.50        -4.3746   1.0000                                         
     4  3  2.50        -1.3606   0.0000                                         
   Description                                                                  
     l       E           TYP  RCUT    TYP  RCUT                                 
     1    -60.9647990     23  2.000                                             
     1     -5.4423304     23  2.000                                             
     2     -4.2382362     23  2.300                                             
     2     -5.5988188     23  2.300                                             
     0     -4.3745797     23  2.300                                             
     0      5.7660125     23  2.300                                             
     3     -1.3605826     23  2.300                                             
  local pseudopotential read in
  partial core-charges read in
  partial kinetic energy density read in
  atomic valenz-charges read in
  non local Contribution for L=           1  read in
    real space projection operators read in
  non local Contribution for L=           1  read in
    real space projection operators read in
  non local Contribution for L=           2  read in
    real space projection operators read in
  non local Contribution for L=           2  read in
    real space projection operators read in
  non local Contribution for L=           0  read in
    real space projection operators read in
  non local Contribution for L=           0  read in
    real space projection operators read in
    PAW grid and wavefunctions read in
 
   number of l-projection  operators is LMAX  =           6
   number of lm-projection operators is LMMAX =          18
 
 POTCAR:    PAW_PBE S 06Sep2000                   
   VRHFIN =S : s2p4                                                             
   LEXCH  = PE                                                                  
   EATOM  =   276.8230 eV,   20.3459 Ry                                         
                                                                                
   TITEL  = PAW_PBE S 06Sep2000                                                 
   LULTRA =        F    use ultrasoft PP ?                                      
   IUNSCR =        1    unscreen: 0-lin 1-nonlin 2-no                           
   RPACOR =    1.500    partial core radius                                     
   POMASS =   32.066; ZVAL   =    6.000    mass and valenz                      
   RCORE  =    1.900    outmost cutoff radius                                   
   RWIGS  =    2.200; RWIGS  =    1.164    wigner-seitz radius (au A)           
   ENMAX  =  258.689; ENMIN  =  194.016 eV                                      
   ICORE  =        2    local potential                                         
   LCOR   =        T    correct aug charges                                     
   LPAW   =        T    paw PP                                                  
   EAUG   =  335.092                                                            
   DEXC   =    0.000                                                            
   RMAX   =    1.942    core radius for proj-oper                               
   RAUG   =    1.300    factor for augmentation sphere                          
   RDEP   =    1.954    radius for radial grids                                 
   RDEPT  =    1.744    core radius for aug-charge                              
                                                                                
   Atomic configuration                                                         
    6 entries                                                                   
     n  l   j            E        occ.                                          
     1  0  0.50     -2405.8406   2.0000                                         
     2  0  0.50      -211.7007   2.0000                                         
     2  1  1.50      -156.4958   6.0000                                         
     3  0  0.50       -17.2562   2.0000                                         
     3  1  0.50        -7.0085   4.0000                                         
     3  2  1.50        -6.8029   0.0000                                         
   Description                                                                  
     l       E           TYP  RCUT    TYP  RCUT                                 
     0    -17.2561641     23  1.900                                             
     0    -15.8743224     23  1.900                                             
     1     -7.0085400     23  1.900                                             
     1     -2.7779785     23  1.900                                             
     2     -6.8029130     23  1.900                                             
  local pseudopotential read in
  partial core-charges read in
  partial kinetic energy density read in
  atomic valenz-charges read in
  non local Contribution for L=           0  read in
    real space projection operators read in
  non local Contribution for L=           0  read in
    real space projection operators read in
  non local Contribution for L=           1  read in
    real space projection operators read in
  non local Contribution for L=           1  read in
    real space projection operators read in
    PAW grid and wavefunctions read in
 
   number of l-projection  operators is LMAX  =           4
   number of lm-projection operators is LMMAX =           8
 
 Optimization of the real space projectors (new method)

 maximal supplied QI-value         = 19.84
 optimisation between [QCUT,QGAM] = [ 11.51, 23.22] = [ 37.09,150.92] Ry 
 Optimized for a Real-space Cutoff    1.18 Angstroem

   l    n(q)    QCUT    max X(q) W(low)/X(q) W(high)/X(q)  e(spline) 
   0      8    11.508   176.870    0.11E-03    0.16E-03    0.40E-07
   0      8    11.508   105.762    0.11E-03    0.16E-03    0.39E-07
   1      8    11.508    55.370    0.23E-03    0.10E-03    0.75E-07
   1      8    11.508    20.208    0.21E-03    0.91E-04    0.68E-07
 Optimization of the real space projectors (new method)

 maximal supplied QI-value         = 16.25
 optimisation between [QCUT,QGAM] = [ 11.54, 23.24] = [ 37.28,151.24] Ry 
 Optimized for a Real-space Cutoff    1.32 Angstroem

   l    n(q)    QCUT    max X(q) W(low)/X(q) W(high)/X(q)  e(spline) 
   1      9    11.539     4.946    0.12E-03    0.47E-03    0.20E-06
   1      9    11.539     5.991    0.19E-03    0.70E-03    0.29E-06
   2      8    11.539    46.947    0.22E-03    0.40E-03    0.23E-06
   2      8    11.539    42.928    0.24E-03    0.42E-03    0.23E-06
   0      9    11.539    68.324    0.11E-03    0.13E-03    0.74E-07
   0      9    11.539    36.926    0.10E-03    0.12E-03    0.70E-07
 Optimization of the real space projectors (new method)

 maximal supplied QI-value         = 19.84
 optimisation between [QCUT,QGAM] = [ 11.51, 23.22] = [ 37.09,150.92] Ry 
 Optimized for a Real-space Cutoff    1.21 Angstroem

   l    n(q)    QCUT    max X(q) W(low)/X(q) W(high)/X(q)  e(spline) 
   0      8    11.508   187.594    0.96E-04    0.18E-03    0.54E-07
   0      8    11.508   164.243    0.96E-04    0.18E-03    0.54E-07
   1      8    11.508    67.533    0.18E-03    0.65E-04    0.94E-07
   1      8    11.508    50.729    0.18E-03    0.63E-04    0.92E-07
  PAW_PBE Al 04Jan2001                  :
 energy of atom  1       EATOM=  -53.5387
 kinetic energy error for atom=    0.0002 (will be added to EATOM!!)
  PAW_PBE Co_pv 23Apr2009               :
 energy of atom  2       EATOM=-2948.1334
 kinetic energy error for atom=    0.0056 (will be added to EATOM!!)
  PAW_PBE S 06Sep2000                   :
 energy of atom  3       EATOM= -276.8230
 kinetic energy error for atom=    0.0016 (will be added to EATOM!!)
 
 
 POSCAR: Al Co  S                                
  positions in direct lattice
  No initial velocities read in
 exchange correlation table for  LEXCH =        8
   RHO(1)=    0.500       N(1)  =     2000
   RHO(2)=  100.500       N(2)  =     4000
 


--------------------------------------------------------------------------------------------------------


 ion  position               nearest neighbor table
   1  0.000  0.000  0.000-  27 2.30  39 2.30  45 2.30  53 2.30
   2  0.250  0.750  0.750-  32 2.30  34 2.30  36 2.30  38 2.30
   3  0.500  0.000  0.500-  25 2.30  33 2.30  41 2.30  54 2.30
   4  0.500  0.500  0.000-  29 2.30  35 2.30  47 2.30  55 2.30
   5  0.750  0.250  0.750-  40 2.30  42 2.30  44 2.30  46 2.30
   6  0.750  0.750  0.250-  48 2.30  49 2.30  50 2.30  51 2.30
   7  0.125  0.375  0.375-  28 2.54  30 2.54  43 2.54  52 2.54  24 2.54  37 2.54
   8  0.125  0.125  0.625-  24 2.28  34 2.28  41 2.28  43 2.28  44 2.28  45 2.28
   9  0.875  0.875  0.625-  25 2.28  27 2.28  31 2.28  34 2.28  44 2.28  51 2.28
  10  0.375  0.125  0.875-  26 2.28  36 2.28  40 2.28  41 2.28  45 2.28  47 2.28
  11  0.625  0.875  0.875-  25 2.28  27 2.28  29 2.28  36 2.28  40 2.28  50 2.28
  12  0.125  0.375  0.875-  28 2.28  32 2.28  42 2.28  43 2.28  45 2.28  47 2.28
  13  0.875  0.625  0.875-  27 2.28  29 2.28  31 2.28  32 2.28  42 2.28  49 2.28
  14  0.375  0.375  0.625-  30 2.28  38 2.28  41 2.28  43 2.28  46 2.28  47 2.28
  15  0.625  0.625  0.625-  25 2.28  29 2.28  31 2.28  38 2.28  46 2.28  48 2.28
  16  0.375  0.875  0.125-  26 2.28  33 2.28  35 2.28  36 2.28  39 2.28  50 2.28
  17  0.375  0.625  0.375-  30 2.28  33 2.28  35 2.28  37 2.28  38 2.28  48 2.28
  18  0.125  0.625  0.125-  28 2.28  32 2.28  35 2.28  37 2.28  39 2.28  49 2.28
  19  0.125  0.875  0.375-  24 2.28  33 2.28  34 2.28  37 2.28  39 2.28  51 2.28
  20  0.875  0.375  0.125-  28 2.28  42 2.28  49 2.28  52 2.28  53 2.28  55 2.28
  21  0.875  0.125  0.375-  24 2.28  44 2.28  51 2.28  52 2.28  53 2.28  54 2.28
  22  0.625  0.125  0.125-  26 2.28  40 2.28  50 2.28  53 2.28  54 2.28  55 2.28
  23  0.625  0.375  0.375-  30 2.28  46 2.28  48 2.28  52 2.28  54 2.28  55 2.28
  24  0.111  0.111  0.389-   8 2.28  19 2.28  21 2.28   7 2.54
  25  0.639  0.861  0.639-   9 2.28  11 2.28  15 2.28   3 2.30
  26  0.389  0.111  0.111-  10 2.28  16 2.28  22 2.28
  27  0.861  0.861  0.861-   9 2.28  11 2.28  13 2.28   1 2.30
  28  0.111  0.389  0.111-  12 2.28  18 2.28  20 2.28   7 2.54
  29  0.639  0.639  0.861-  11 2.28  13 2.28  15 2.28   4 2.30
  30  0.389  0.389  0.389-  14 2.28  17 2.28  23 2.28   7 2.54
  31  0.861  0.639  0.639-   9 2.28  13 2.28  15 2.28
  32  0.111  0.611  0.889-  12 2.28  13 2.28  18 2.28   2 2.30
  33  0.361  0.861  0.361-  16 2.28  17 2.28  19 2.28   3 2.30
  34  0.111  0.889  0.611-   8 2.28   9 2.28  19 2.28   2 2.30
  35  0.361  0.639  0.139-  16 2.28  17 2.28  18 2.28   4 2.30
  36  0.389  0.889  0.889-  10 2.28  11 2.28  16 2.28   2 2.30
  37  0.139  0.639  0.361-  17 2.28  18 2.28  19 2.28   7 2.54
  38  0.389  0.611  0.611-  14 2.28  15 2.28  17 2.28   2 2.30
  39  0.139  0.861  0.139-  16 2.28  18 2.28  19 2.28   1 2.30
  40  0.611  0.111  0.889-  10 2.28  11 2.28  22 2.28   5 2.30
  41  0.361  0.139  0.639-   8 2.28  10 2.28  14 2.28   3 2.30
  42  0.889  0.389  0.889-  12 2.28  13 2.28  20 2.28   5 2.30
  43  0.139  0.361  0.639-   8 2.28  12 2.28  14 2.28   7 2.54
  44  0.889  0.111  0.611-   8 2.28   9 2.28  21 2.28   5 2.30
  45  0.139  0.139  0.861-   8 2.28  10 2.28  12 2.28   1 2.30
  46  0.611  0.389  0.611-  14 2.28  15 2.28  23 2.28   5 2.30
  47  0.361  0.361  0.861-  10 2.28  12 2.28  14 2.28   4 2.30
  48  0.611  0.611  0.389-  15 2.28  17 2.28  23 2.28   6 2.30
  49  0.889  0.611  0.111-  13 2.28  18 2.28  20 2.28   6 2.30
  50  0.611  0.889  0.111-  11 2.28  16 2.28  22 2.28   6 2.30
  51  0.889  0.889  0.389-   9 2.28  19 2.28  21 2.28   6 2.30
  52  0.861  0.361  0.361-  20 2.28  21 2.28  23 2.28   7 2.54
  53  0.861  0.139  0.139-  20 2.28  21 2.28  22 2.28   1 2.30
  54  0.639  0.139  0.361-  21 2.28  22 2.28  23 2.28   3 2.30
  55  0.639  0.361  0.139-  20 2.28  22 2.28  23 2.28   4 2.30
 
  LATTYP: Found a simple cubic cell.
 ALAT       =     9.6027250954
  
  Lattice vectors:
  
 A1 = (   9.6027250954,   0.0000000000,   0.0000000000)
 A2 = (   0.0000000000,   9.6027250954,   0.0000000000)
 A3 = (   0.0000000000,   0.0000000000,   9.6027250954)


Analysis of symmetry for initial positions (statically):
=====================================================================
 Subroutine PRICEL returns:
 Original cell was already a primitive cell.
 

 Routine SETGRP: Setting up the symmetry group for a 
 simple cubic supercell.


 Subroutine GETGRP returns: Found 12 space group operations
 (whereof  2 operations were pure point group operations)
 out of a pool of 48 trial point group operations.


The static configuration has the point symmetry C_1h.
 The point group associated with its full space group is D_3d.


Analysis of symmetry for dynamics (positions and initial velocities):
=====================================================================
 Subroutine PRICEL returns:
 Original cell was already a primitive cell.
 

 Routine SETGRP: Setting up the symmetry group for a 
 simple cubic supercell.


 Subroutine GETGRP returns: Found 12 space group operations
 (whereof  2 operations were pure point group operations)
 out of a pool of 48 trial point group operations.


The dynamic configuration has the point symmetry C_1h.
 The point group associated with its full space group is D_3d.


Analysis of structural, dynamic, and magnetic symmetry:
=====================================================================
 Subroutine PRICEL returns:
 Original cell was already a primitive cell.
 

 Routine SETGRP: Setting up the symmetry group for a 
 simple cubic supercell.


 Subroutine GETGRP returns: Found 12 space group operations
 (whereof  2 operations were pure point group operations)
 out of a pool of 48 trial point group operations.


The magnetic configuration has the point symmetry C_1h.
 The point group associated with its full space group is D_3d.


 Subroutine INISYM returns: Found 12 space group operations
 (whereof  2 operations are pure point group operations),
 and found     1 'primitive' translations

 
 
 KPOINTS: k-points file                           

Automatic generation of k-mesh.
Space group operators:
 irot       det(A)        alpha          n_x          n_y          n_z        tau_x        tau_y        tau_z
    1     1.000000     0.000000     1.000000     0.000000     0.000000     0.000000     0.000000     0.000000
    2    -1.000000   180.000000     0.000000    -0.707107     0.707107     0.000000     0.000000     0.000000
    3    -1.000000     0.000000     1.000000     0.000000     0.000000     0.250000     0.750000     0.750000
    4     1.000000   120.000000    -0.577350     0.577350     0.577350     0.500000     0.500000     0.000000
    5    -1.000000   120.000000    -0.577350     0.577350     0.577350     0.750000     0.250000     0.750000
    6     1.000000   180.000000     0.707107     0.000000     0.707107     0.750000     0.750000     0.250000
    7    -1.000000   180.000000     0.707107     0.000000     0.707107     0.500000     0.000000     0.500000
    8     1.000000   180.000000     0.707107     0.707107     0.000000     0.750000     0.250000     0.750000
    9    -1.000000   180.000000     0.707107     0.707107     0.000000     0.500000     0.500000     0.000000
   10     1.000000   120.000000     0.577350    -0.577350    -0.577350     0.500000     0.000000     0.500000
   11    -1.000000   120.000000     0.577350    -0.577350    -0.577350     0.750000     0.750000     0.250000
   12     1.000000   180.000000     0.000000    -0.707107     0.707107     0.250000     0.750000     0.750000
 
 Subroutine IBZKPT returns following result:
 ===========================================
 
 Found      4 irreducible k-points:
 
 Following reciprocal coordinates:
            Coordinates               Weight
  0.000000  0.000000  0.000000      1.000000
  0.500000  0.000000  0.000000      3.000000
  0.500000  0.500000  0.000000      3.000000
  0.500000  0.500000  0.500000      1.000000
 
 Following cartesian coordinates:
            Coordinates               Weight
  0.000000  0.000000  0.000000      1.000000
  0.052069  0.000000  0.000000      3.000000
  0.052069  0.052069  0.000000      3.000000
  0.052069  0.052069  0.052069      1.000000
 
 TETIRR: Found      4 inequivalent tetrahedra from       48


--------------------------------------------------------------------------------------------------------




 Dimension of arrays:
   k-points           NKPTS =      4   k-points in BZ     NKDIM =      4   number of bands    NBANDS=    336
   number of dos      NEDOS =    301   number of ions     NIONS =     55
   non local maximal  LDIM  =      6   non local SUM 2l+1 LMDIM =     18
   total plane-waves  NPLWV = 373248
   max r-space proj   IRMAX =   4139   max aug-charges    IRDMAX=  16603
   dimension x,y,z NGX =    72 NGY =   72 NGZ =   72
   dimension x,y,z NGXF=   144 NGYF=  144 NGZF=  144
   support grid    NGXF=   144 NGYF=  144 NGZF=  144
   ions per type =               7  16  32
   NGX,Y,Z   is equivalent  to a cutoff of  12.46, 12.46, 12.46 a.u.
   NGXF,Y,Z  is equivalent  to a cutoff of  24.93, 24.93, 24.93 a.u.

 SYSTEM =  AlCo2S4                                 
 POSCAR =  Al Co  S                                

 Startparameter for this run:
   NWRITE =      2    write-flag & timer
   PREC   = accura    normal or accurate (medium, high low for compatibility)
   ISTART =      0    job   : 0-new  1-cont  2-samecut
   ICHARG =      1    charge: 1-file 2-atom 10-const
   ISPIN  =      2    spin polarized calculation?
   LNONCOLLINEAR =      F non collinear calculations
   LSORBIT =      F    spin-orbit coupling
   INIWAV =      1    electr: 0-lowe 1-rand  2-diag
   LASPH  =      F    aspherical Exc in radial PAW
   METAGGA=      F    non-selfconsistent MetaGGA calc.

 Electronic Relaxation 1
   ENCUT  =  520.0 eV  38.22 Ry    6.18 a.u.  17.85 17.85 17.85*2*pi/ulx,y,z
   ENINI  =  520.0     initial cutoff
   ENAUG  =  543.1 eV  augmentation charge cutoff
   NELM   =    100;   NELMIN=  2; NELMDL= -5     # of ELM steps 
   EDIFF  = 0.1E-04   stopping-criterion for ELM
   LREAL  =      T    real-space projection
   NLSPLINE    = F    spline interpolate recip. space projectors
   LCOMPAT=      F    compatible to vasp.4.4
   GGA_COMPAT  = T    GGA compatible to vasp.4.4-vasp.4.6
   LMAXPAW     = -100 max onsite density
   LMAXMIX     =    4 max onsite mixed and CHGCAR
   VOSKOWN=      0    Vosko Wilk Nusair interpolation
   ROPT   =   -0.00025  -0.00025  -0.00025
 Ionic relaxation
   EDIFFG = -.1E-01   stopping-criterion for IOM
   NSW    =    199    number of steps for IOM
   NBLOCK =      1;   KBLOCK =    199    inner block; outer block 
   IBRION =      2    ionic relax: 0-MD 1-quasi-New 2-CG
   NFREE  =      1    steps in history (QN), initial steepest desc. (CG)
   ISIF   =      2    stress and relaxation
   IWAVPR =     11    prediction:  0-non 1-charg 2-wave 3-comb
   ISYM   =      2    0-nonsym 1-usesym 2-fastsym
   LCORR  =      T    Harris-Foulkes like correction to forces

   POTIM  = 0.5000    time-step for ionic-motion
   TEIN   =    0.0    initial temperature
   TEBEG  =    0.0;   TEEND  =   0.0 temperature during run
   SMASS  =  -3.00    Nose mass-parameter (am)
   estimated Nose-frequenzy (Omega)   =  0.10E-29 period in steps =****** mass=  -0.211E-26a.u.
   SCALEE = 1.0000    scale energy and forces
   NPACO  =    256;   APACO  = 16.0  distance and # of slots for P.C.
   PSTRESS=    0.0 pullay stress

  Mass of Ions in am
   POMASS =  26.98 58.93 32.07
  Ionic Valenz
   ZVAL   =   3.00 15.00  6.00
  Atomic Wigner-Seitz radii
   RWIGS  =  -1.00 -1.00 -1.00
  virtual crystal weights 
   VCA    =   1.00  1.00  1.00
   NELECT =     453.0000    total number of electrons
   NUPDOWN=      -1.0000    fix difference up-down

 DOS related values:
   EMIN   =  10.00;   EMAX   =-10.00  energy-range for DOS
   EFERMI =   0.00
   ISMEAR =    -5;   SIGMA  =   0.05  broadening in eV -4-tet -1-fermi 0-gaus

 Electronic relaxation 2 (details)
   IALGO  =     38    algorithm
   LDIAG  =      T    sub-space diagonalisation (order eigenvalues)
   LSUBROT=      F    optimize rotation matrix (better conditioning)
   TURBO    =      0    0=normal 1=particle mesh
   IRESTART =      0    0=no restart 2=restart with 2 vectors
   NREBOOT  =      0    no. of reboots
   NMIN     =      0    reboot dimension
   EREF     =   0.00    reference energy to select bands
   IMIX   =      4    mixing-type and parameters
     AMIX     =   0.40;   BMIX     =  1.00
     AMIX_MAG =   1.60;   BMIX_MAG =  1.00
     AMIN     =   0.10
     WC   =   100.;   INIMIX=   1;  MIXPRE=   1;  MAXMIX= -45

 Intra band minimization:
   WEIMIN = 0.0010     energy-eigenvalue tresh-hold
   EBREAK =  0.74E-08  absolut break condition
   DEPER  =   0.30     relativ break condition  

   TIME   =   0.40     timestep for ELM

  volume/ion in A,a.u.               =      16.10       108.65
  Fermi-wavevector in a.u.,A,eV,Ry     =   1.309322  2.474259 23.324789  1.714324
  Thomas-Fermi vector in A             =   2.439928
 
 Write flags
   LWAVE        =      F    write WAVECAR
   LDOWNSAMPLE  =      F    k-point downsampling of WAVECAR
   LCHARG       =      F    write CHGCAR
   LVTOT        =      F    write LOCPOT, total local potential
   LVHAR        =      F    write LOCPOT, Hartree potential only
   LELF         =      F    write electronic localiz. function (ELF)
   LORBIT       =     11    0 simple, 1 ext, 2 COOP (PROOUT), +10 PAW based schemes


 Dipole corrections
   LMONO  =      F    monopole corrections only (constant potential shift)
   LDIPOL =      F    correct potential (dipole corrections)
   IDIPOL =      0    1-x, 2-y, 3-z, 4-all directions 
   EPSILON=  1.0000000 bulk dielectric constant

 Exchange correlation treatment:
   GGA     =    --    GGA type
   LEXCH   =     8    internal setting for exchange type
   VOSKOWN=      0    Vosko Wilk Nusair interpolation
   LHFCALC =     F    Hartree Fock is set to
   LHFONE  =     F    Hartree Fock one center treatment
   AEXX    =    0.0000 exact exchange contribution

 Linear response parameters
   LEPSILON=     F    determine dielectric tensor
   LRPA    =     F    only Hartree local field effects (RPA)
   LNABLA  =     F    use nabla operator in PAW spheres
   LVEL    =     F    velocity operator in full k-point grid
   LINTERFAST=   F  fast interpolation
   KINTER  =     0    interpolate to denser k-point grid
   CSHIFT  =0.1000    complex shift for real part using Kramers Kronig
   OMEGAMAX=  -1.0    maximum frequency
   DEG_THRESHOLD= 0.2000000E-02 threshold for treating states as degnerate
   RTIME   =   -0.100 relaxation time in fs
  (WPLASMAI=    0.000 imaginary part of plasma frequency in eV, 0.658/RTIME)
   DFIELD  = 0.0000000 0.0000000 0.0000000 field for delta impulse in time
 
 Orbital magnetization related:
   ORBITALMAG=     F  switch on orbital magnetization
   LCHIMAG   =     F  perturbation theory with respect to B field
   DQ        =  0.001000  dq finite difference perturbation B field
   LLRAUG    =     F  two centre corrections for induced B field



--------------------------------------------------------------------------------------------------------


 conjugate gradient relaxation of ions
 charge density and potential will be updated during run
 spin polarized calculation
 Variant of blocked Davidson
 Davidson routine will perform the subspace rotation
 perform sub-space diagonalisation
    after iterative eigenvector-optimisation
 modified Broyden-mixing scheme, WC =      100.0
 initial mixing is a Kerker type mixing with AMIX =  0.4000 and BMIX =      1.0000
 Hartree-type preconditioning will be used
 using additional bands          109
 real space projection scheme for non local part
 use partial core corrections
 calculate Harris-corrections to forces 
   (improved forces if not selfconsistent)
 use gradient corrections 
 use of overlap-Matrix (Vanderbilt PP)
 Fermi weights with tetrahedron method with Bloechl corrections


--------------------------------------------------------------------------------------------------------


  energy-cutoff  :      520.00
  volume of cell :      885.49
      direct lattice vectors                 reciprocal lattice vectors
     9.602725095  0.000000000  0.000000000     0.104137106  0.000000000  0.000000000
     0.000000000  9.602725095  0.000000000     0.000000000  0.104137106  0.000000000
     0.000000000  0.000000000  9.602725095     0.000000000  0.000000000  0.104137106

  length of vectors
     9.602725095  9.602725095  9.602725095     0.104137106  0.104137106  0.104137106


 
 k-points in units of 2pi/SCALE and weight: k-points file                           
   0.00000000  0.00000000  0.00000000       0.125
   0.05206855  0.00000000  0.00000000       0.375
   0.05206855  0.05206855  0.00000000       0.375
   0.05206855  0.05206855  0.05206855       0.125
 
 k-points in reciprocal lattice and weights: k-points file                           
   0.00000000  0.00000000  0.00000000       0.125
   0.50000000  0.00000000  0.00000000       0.375
   0.50000000  0.50000000  0.00000000       0.375
   0.50000000  0.50000000  0.50000000       0.125
 
 position of ions in fractional coordinates (direct lattice) 
   0.00000000  0.00000000  0.00000000
   0.25000000  0.75000000  0.75000000
   0.50000000  0.00000000  0.50000000
   0.50000000  0.50000000  0.00000000
   0.75000000  0.25000000  0.75000000
   0.75000000  0.75000000  0.25000000
   0.12500000  0.37500000  0.37500000
   0.12500000  0.12500000  0.62500000
   0.87500000  0.87500000  0.62500000
   0.37500000  0.12500000  0.87500000
   0.62500000  0.87500000  0.87500000
   0.12500000  0.37500000  0.87500000
   0.87500000  0.62500000  0.87500000
   0.37500000  0.37500000  0.62500000
   0.62500000  0.62500000  0.62500000
   0.37500000  0.87500000  0.12500000
   0.37500000  0.62500000  0.37500000
   0.12500000  0.62500000  0.12500000
   0.12500000  0.87500000  0.37500000
   0.87500000  0.37500000  0.12500000
   0.87500000  0.12500000  0.37500000
   0.62500000  0.12500000  0.12500000
   0.62500000  0.37500000  0.37500000
   0.11149459  0.11149459  0.38850541
   0.63850541  0.86149459  0.63850541
   0.38850541  0.11149459  0.11149459
   0.86149459  0.86149459  0.86149459
   0.11149459  0.38850541  0.11149459
   0.63850541  0.63850541  0.86149459
   0.38850541  0.38850541  0.38850541
   0.86149459  0.63850541  0.63850541
   0.11149459  0.61149459  0.88850541
   0.36149459  0.86149459  0.36149459
   0.11149459  0.88850541  0.61149459
   0.36149459  0.63850541  0.13850541
   0.38850541  0.88850541  0.88850541
   0.13850541  0.63850541  0.36149459
   0.38850541  0.61149459  0.61149459
   0.13850541  0.86149459  0.13850541
   0.61149459  0.11149459  0.88850541
   0.36149459  0.13850541  0.63850541
   0.88850541  0.38850541  0.88850541
   0.13850541  0.36149459  0.63850541
   0.88850541  0.11149459  0.61149459
   0.13850541  0.13850541  0.86149459
   0.61149459  0.38850541  0.61149459
   0.36149459  0.36149459  0.86149459
   0.61149459  0.61149459  0.38850541
   0.88850541  0.61149459  0.11149459
   0.61149459  0.88850541  0.11149459
   0.88850541  0.88850541  0.38850541
   0.86149459  0.36149459  0.36149459
   0.86149459  0.13850541  0.13850541
   0.63850541  0.13850541  0.36149459
   0.63850541  0.36149459  0.13850541
 
 position of ions in cartesian coordinates  (Angst):
   0.00000000  0.00000000  0.00000000
   2.40068127  7.20204382  7.20204382
   4.80136255  0.00000000  4.80136255
   4.80136255  4.80136255  0.00000000
   7.20204382  2.40068127  7.20204382
   7.20204382  7.20204382  2.40068127
   1.20034064  3.60102191  3.60102191
   1.20034064  1.20034064  6.00170318
   8.40238446  8.40238446  6.00170318
   3.60102191  1.20034064  8.40238446
   6.00170318  8.40238446  8.40238446
   1.20034064  3.60102191  8.40238446
   8.40238446  6.00170318  8.40238446
   3.60102191  3.60102191  6.00170318
   6.00170318  6.00170318  6.00170318
   3.60102191  8.40238446  1.20034064
   3.60102191  6.00170318  3.60102191
   1.20034064  6.00170318  1.20034064
   1.20034064  8.40238446  3.60102191
   8.40238446  3.60102191  1.20034064
   8.40238446  1.20034064  3.60102191
   6.00170318  1.20034064  1.20034064
   6.00170318  3.60102191  3.60102191
   1.07065186  1.07065186  3.73071069
   6.13139196  8.27269568  6.13139196
   3.73071069  1.07065186  1.07065186
   8.27269568  8.27269568  8.27269568
   1.07065186  3.73071069  1.07065186
   6.13139196  6.13139196  8.27269568
   3.73071069  3.73071069  3.73071069
   8.27269568  6.13139196  6.13139196
   1.07065186  5.87201441  8.53207324
   3.47133313  8.27269568  3.47133313
   1.07065186  8.53207324  5.87201441
   3.47133313  6.13139196  1.33002942
   3.73071069  8.53207324  8.53207324
   1.33002942  6.13139196  3.47133313
   3.73071069  5.87201441  5.87201441
   1.33002942  8.27269568  1.33002942
   5.87201441  1.07065186  8.53207324
   3.47133313  1.33002942  6.13139196
   8.53207324  3.73071069  8.53207324
   1.33002942  3.47133313  6.13139196
   8.53207324  1.07065186  5.87201441
   1.33002942  1.33002942  8.27269568
   5.87201441  3.73071069  5.87201441
   3.47133313  3.47133313  8.27269568
   5.87201441  5.87201441  3.73071069
   8.53207324  5.87201441  1.07065186
   5.87201441  8.53207324  1.07065186
   8.53207324  8.53207324  3.73071069
   8.27269568  3.47133313  3.47133313
   8.27269568  1.33002942  1.33002942
   6.13139196  1.33002942  3.47133313
   6.13139196  3.47133313  1.33002942
 


--------------------------------------------------------------------------------------------------------


 k-point  1 :   0.0000 0.0000 0.0000  plane waves:   23847
 k-point  2 :   0.5000 0.0000 0.0000  plane waves:   23844
 k-point  3 :   0.5000 0.5000 0.0000  plane waves:   23900
 k-point  4 :   0.5000 0.5000 0.5000  plane waves:   23984

 maximum and minimum number of plane-waves per node :     23984    23844

 maximum number of plane-waves:     23984
 maximum index in each direction: 
   IXMAX=   17   IYMAX=   17   IZMAX=   17
   IXMIN=  -18   IYMIN=  -18   IZMIN=  -18


 serial   3D FFT for wavefunctions
 parallel 3D FFT for charge:
    minimum data exchange during FFTs selected (reduces bandwidth)


 total amount of memory used by VASP MPI-rank0   114849. kBytes
=======================================================================

   base      :      30000. kBytes
   nonlr-proj:      21847. kBytes
   fftplans  :       3667. kBytes
   grid      :      35562. kBytes
   one-center:       1710. kBytes
   wavefun   :      22063. kBytes
 
     INWAV:  cpu time    0.0000: real time    0.0000
 Broyden mixing: mesh for mixing (old mesh)
   NGX = 35   NGY = 35   NGZ = 35
  (NGX  =144   NGY  =144   NGZ  =144)
  gives a total of  42875 points

 initial charge density was supplied:
 charge density of overlapping atoms calculated
 number of electron     453.0000000 magnetization     103.4000000
 keeping initial charge density in first step


--------------------------------------------------------------------------------------------------------


 Maximum index for non-local projection operator         3911
 Maximum index for augmentation-charges          761 (set IRDMAX)


--------------------------------------------------------------------------------------------------------


 First call to EWALD:  gamma=   0.185
 Maximum number of real-space cells 3x 3x 3
 Maximum number of reciprocal cells 3x 3x 3

    FEWALD:  cpu time    0.0024: real time    0.0025


--------------------------------------- Iteration      1(   1)  ---------------------------------------


    POTLOK:  cpu time    0.1008: real time    0.1103
    SETDIJ:  cpu time    0.0148: real time    0.0151
     EDDAV:  cpu time    8.8606: real time    8.9197
 BZINTS: Fermi energy: 22.501953;453.000000 electrons
         Band energy:1388.634970;  BLOECHL correction: -0.128835
       DOS:  cpu time    0.0045: real time    0.0045
    --------------------------------------------
      LOOP:  cpu time    8.9807: real time    9.0496

 eigenvalue-minimisations  :  5424
 total energy-change (2. order) : 0.5153148E+04  (-0.2241510E+05)
 number of electron     453.0000000 magnetization     103.4000000
 augmentation part      453.0000000 magnetization     103.4000000

 Free energy of the ion-electron system (eV)
  ---------------------------------------------------
  alpha Z        PSCENC =      1269.90711959
  Ewald energy   TEWEN  =    -29695.89864203
  -Hartree energ DENC   =    -23085.23891699
  -exchange      EXHF   =         0.00000000
  -V(xc)+E(xc)   XCENC  =      1709.59218137
  PAW double counting   =     44894.81802819   -47731.76596422
  entropy T*S    EENTRO =         0.00000000
  eigenvalues    EBANDS =      1388.63496988
  atomic energy  EATOM  =     56403.09886247
  Solvation  Ediel_sol  =         0.00000000
  ---------------------------------------------------
  free energy    TOTEN  =      5153.14763826 eV

  energy without entropy =     5153.14763826  energy(sigma->0) =     5153.14763826


--------------------------------------------------------------------------------------------------------




--------------------------------------- Iteration      1(   2)  ---------------------------------------


     EDDAV:  cpu time    8.6974: real time    8.7556
 BZINTS: Fermi energy: 10.397014;453.000000 electrons
         Band energy:***********;  BLOECHL correction: -0.002868
       DOS:  cpu time    0.0034: real time    0.0034
    --------------------------------------------
      LOOP:  cpu time    8.7008: real time    8.7591

 eigenvalue-minimisations  :  5376
 total energy-change (2. order) :-0.4793185E+04  (-0.4481360E+04)
 number of electron     453.0000000 magnetization     103.4000000
 augmentation part      453.0000000 magnetization     103.4000000

 Free energy of the ion-electron system (eV)
  ---------------------------------------------------
  alpha Z        PSCENC =      1269.90711959
  Ewald energy   TEWEN  =    -29695.89864203
  -Hartree energ DENC   =    -23085.23891699
  -exchange      EXHF   =         0.00000000
  -V(xc)+E(xc)   XCENC  =      1709.59218137
  PAW double counting   =     44894.81802819   -47731.76596422
  entropy T*S    EENTRO =         0.00000000
  eigenvalues    EBANDS =     -3404.54955535
  atomic energy  EATOM  =     56403.09886247
  Solvation  Ediel_sol  =         0.00000000
  ---------------------------------------------------
  free energy    TOTEN  =       359.96311302 eV

  energy without entropy =      359.96311302  energy(sigma->0) =      359.96311302


--------------------------------------------------------------------------------------------------------




--------------------------------------- Iteration      1(   3)  ---------------------------------------


     EDDAV:  cpu time    9.6768: real time    9.7443
 BZINTS: Fermi energy:  9.117578;453.000000 electrons
         Band energy:***********;  BLOECHL correction: -0.194431
       DOS:  cpu time    0.0033: real time    0.0033
    --------------------------------------------
      LOOP:  cpu time    9.6801: real time    9.7476

 eigenvalue-minimisations  :  6048
 total energy-change (2. order) :-0.6459734E+03  (-0.6097872E+03)
 number of electron     453.0000000 magnetization     103.4000000
 augmentation part      453.0000000 magnetization     103.4000000

 Free energy of the ion-electron system (eV)
  ---------------------------------------------------
  alpha Z        PSCENC =      1269.90711959
  Ewald energy   TEWEN  =    -29695.89864203
  -Hartree energ DENC   =    -23085.23891699
  -exchange      EXHF   =         0.00000000
  -V(xc)+E(xc)   XCENC  =      1709.59218137
  PAW double counting   =     44894.81802819   -47731.76596422
  entropy T*S    EENTRO =         0.00000000
  eigenvalues    EBANDS =     -4050.52295249
  atomic energy  EATOM  =     56403.09886247
  Solvation  Ediel_sol  =         0.00000000
  ---------------------------------------------------
  free energy    TOTEN  =      -286.01028412 eV

  energy without entropy =     -286.01028412  energy(sigma->0) =     -286.01028412


--------------------------------------------------------------------------------------------------------




--------------------------------------- Iteration      1(   4)  ---------------------------------------


     EDDAV:  cpu time   10.3782: real time   10.4484
 BZINTS: Fermi energy:  9.029351;453.000000 electrons
         Band energy:***********;  BLOECHL correction: -0.143242
       DOS:  cpu time    0.0034: real time    0.0034
    --------------------------------------------
      LOOP:  cpu time   10.3815: real time   10.4518

 eigenvalue-minimisations  :  6528
 total energy-change (2. order) :-0.3255450E+02  (-0.3226997E+02)
 number of electron     453.0000000 magnetization     103.4000000
 augmentation part      453.0000000 magnetization     103.4000000

 Free energy of the ion-electron system (eV)
  ---------------------------------------------------
  alpha Z        PSCENC =      1269.90711959
  Ewald energy   TEWEN  =    -29695.89864203
  -Hartree energ DENC   =    -23085.23891699
  -exchange      EXHF   =         0.00000000
  -V(xc)+E(xc)   XCENC  =      1709.59218137
  PAW double counting   =     44894.81802819   -47731.76596422
  entropy T*S    EENTRO =         0.00000000
  eigenvalues    EBANDS =     -4083.07745702
  atomic energy  EATOM  =     56403.09886247
  Solvation  Ediel_sol  =         0.00000000
  ---------------------------------------------------
  free energy    TOTEN  =      -318.56478864 eV

  energy without entropy =     -318.56478864  energy(sigma->0) =     -318.56478864


--------------------------------------------------------------------------------------------------------




--------------------------------------- Iteration      1(   5)  ---------------------------------------


     EDDAV:  cpu time   10.2393: real time   10.3148
 BZINTS: Fermi energy:  9.026840;453.000000 electrons
         Band energy:***********;  BLOECHL correction: -0.143559
       DOS:  cpu time    0.0033: real time    0.0034
    CHARGE:  cpu time    0.5174: real time    0.5207
    MIXING:  cpu time    0.0040: real time    0.0040
    --------------------------------------------
      LOOP:  cpu time   10.7640: real time   10.8428

 eigenvalue-minimisations  :  6432
 total energy-change (2. order) :-0.5930043E+00  (-0.5923946E+00)
 number of electron     452.9999418 magnetization      83.1230531
 augmentation part      110.4661504 magnetization      64.4991683

 Broyden mixing:
  rms(total) = 0.10112E+02    rms(broyden)= 0.10112E+02
  rms(prec ) = 0.11827E+02
  weight for this iteration     100.00

 Free energy of the ion-electron system (eV)
  ---------------------------------------------------
  alpha Z        PSCENC =      1269.90711959
  Ewald energy   TEWEN  =    -29695.89864203
  -Hartree energ DENC   =    -23085.23891699
  -exchange      EXHF   =         0.00000000
  -V(xc)+E(xc)   XCENC  =      1709.59218137
  PAW double counting   =     44894.81802819   -47731.76596422
  entropy T*S    EENTRO =         0.00000000
  eigenvalues    EBANDS =     -4083.67046130
  atomic energy  EATOM  =     56403.09886247
  Solvation  Ediel_sol  =         0.00000000
  ---------------------------------------------------
  free energy    TOTEN  =      -319.15779292 eV

  energy without entropy =     -319.15779292  energy(sigma->0) =     -319.15779292


--------------------------------------------------------------------------------------------------------




--------------------------------------- Iteration      1(   6)  ---------------------------------------


    POTLOK:  cpu time    0.0950: real time    0.0965
    SETDIJ:  cpu time    0.0130: real time    0.0130
     EDDAV:  cpu time    9.5449: real time    9.6060
 BZINTS: Fermi energy:  5.241442;453.000000 electrons
         Band energy:***********;  BLOECHL correction: -0.078767
       DOS:  cpu time    0.0060: real time    0.0060
    CHARGE:  cpu time    0.5040: real time    0.5072
    MIXING:  cpu time    0.0027: real time    0.0027
    --------------------------------------------
      LOOP:  cpu time   10.1655: real time   10.2314

 eigenvalue-minimisations  :  5952
 total energy-change (2. order) :-0.1476608E+03  (-0.5878540E+02)
 number of electron     452.9999177 magnetization      72.8259299
 augmentation part      169.4290806 magnetization      63.3897016

 Broyden mixing:
  rms(total) = 0.16361E+02    rms(broyden)= 0.16360E+02
  rms(prec ) = 0.19600E+02
  weight for this iteration     100.00

 eigenvalues of (default mixing * dielectric matrix)
  average eigenvalue GAMMA=   0.1267
  0.1267

 Free energy of the ion-electron system (eV)
  ---------------------------------------------------
  alpha Z        PSCENC =      1269.90711959
  Ewald energy   TEWEN  =    -29695.89864203
  -Hartree energ DENC   =    -21433.67636379
  -exchange      EXHF   =         0.00000000
  -V(xc)+E(xc)   XCENC  =      1649.64921161
  PAW double counting   =     49486.67074149   -52107.57580863
  entropy T*S    EENTRO =         0.00000000
  eigenvalues    EBANDS =     -6038.99369080
  atomic energy  EATOM  =     56403.09886247
  Solvation  Ediel_sol  =         0.00000000
  ---------------------------------------------------
  free energy    TOTEN  =      -466.81857009 eV

  energy without entropy =     -466.81857009  energy(sigma->0) =     -466.81857009


--------------------------------------------------------------------------------------------------------




--------------------------------------- Iteration      1(   7)  ---------------------------------------


    POTLOK:  cpu time    0.0915: real time    0.0971
    SETDIJ:  cpu time    0.0130: real time    0.0130
     EDDAV:  cpu time   10.0017: real time   10.0634
 BZINTS: Fermi energy:  5.885822;453.000000 electrons
         Band energy:***********;  BLOECHL correction: -0.161648
       DOS:  cpu time    0.0049: real time    0.0049
    CHARGE:  cpu time    0.5038: real time    0.5068
    MIXING:  cpu time    0.0024: real time    0.0024
    --------------------------------------------
      LOOP:  cpu time   10.6173: real time   10.6876

 eigenvalue-minimisations  :  6336
 total energy-change (2. order) : 0.1767532E+03  (-0.2732154E+02)
 number of electron     452.9999379 magnetization      50.0208166
 augmentation part      144.4088256 magnetization      45.5848978

 Broyden mixing:
  rms(total) = 0.61106E+01    rms(broyden)= 0.61086E+01
  rms(prec ) = 0.71385E+01
  weight for this iteration     100.00

 eigenvalues of (default mixing * dielectric matrix)
  average eigenvalue GAMMA=   0.5905
  0.5905  0.5905

 Free energy of the ion-electron system (eV)
  ---------------------------------------------------
  alpha Z        PSCENC =      1269.90711959
  Ewald energy   TEWEN  =    -29695.89864203
  -Hartree energ DENC   =    -22356.78894367
  -exchange      EXHF   =         0.00000000
  -V(xc)+E(xc)   XCENC  =      1667.87065164
  PAW double counting   =     52808.95589530   -55624.94432701
  entropy T*S    EENTRO =         0.00000000
  eigenvalues    EBANDS =     -4762.26594892
  atomic energy  EATOM  =     56403.09886247
  Solvation  Ediel_sol  =         0.00000000
  ---------------------------------------------------
  free energy    TOTEN  =      -290.06533263 eV

  energy without entropy =     -290.06533263  energy(sigma->0) =     -290.06533263


--------------------------------------------------------------------------------------------------------




--------------------------------------- Iteration      1(   8)  ---------------------------------------


    POTLOK:  cpu time    0.0940: real time    0.0967
    SETDIJ:  cpu time    0.0128: real time    0.0129
     EDDAV:  cpu time   10.7991: real time   10.8693
 BZINTS: Fermi energy:  6.755484;453.000000 electrons
         Band energy:***********;  BLOECHL correction: -0.342075
       DOS:  cpu time    0.0050: real time    0.0050
    CHARGE:  cpu time    0.5032: real time    0.5062
    MIXING:  cpu time    0.0026: real time    0.0026
    --------------------------------------------
      LOOP:  cpu time   11.4166: real time   11.4926

 eigenvalue-minimisations  :  6912
 total energy-change (2. order) : 0.7697439E+00  (-0.8595997E+01)
 number of electron     452.9999486 magnetization      29.5265723
 augmentation part      130.6716099 magnetization      27.3256231

 Broyden mixing:
  rms(total) = 0.31041E+01    rms(broyden)= 0.31022E+01
  rms(prec ) = 0.34484E+01
  weight for this iteration     100.00

 eigenvalues of (default mixing * dielectric matrix)
  average eigenvalue GAMMA=   0.7587
  1.2052  0.4739  0.5971

 Free energy of the ion-electron system (eV)
  ---------------------------------------------------
  alpha Z        PSCENC =      1269.90711959
  Ewald energy   TEWEN  =    -29695.89864203
  -Hartree energ DENC   =    -22710.82697306
  -exchange      EXHF   =         0.00000000
  -V(xc)+E(xc)   XCENC  =      1669.53080442
  PAW double counting   =     57718.41955018   -60571.54567508
  entropy T*S    EENTRO =         0.00000000
  eigenvalues    EBANDS =     -4371.98063519
  atomic energy  EATOM  =     56403.09886247
  Solvation  Ediel_sol  =         0.00000000
  ---------------------------------------------------
  free energy    TOTEN  =      -289.29558870 eV

  energy without entropy =     -289.29558870  energy(sigma->0) =     -289.29558870


--------------------------------------------------------------------------------------------------------




--------------------------------------- Iteration      1(   9)  ---------------------------------------


    POTLOK:  cpu time    0.0949: real time    0.0974
    SETDIJ:  cpu time    0.0130: real time    0.0130
     EDDAV:  cpu time   10.2737: real time   10.3386
 BZINTS: Fermi energy:  7.062227;453.000000 electrons
         Band energy:***********;  BLOECHL correction: -0.034027
       DOS:  cpu time    0.0047: real time    0.0047
    CHARGE:  cpu time    0.4989: real time    0.5023
    MIXING:  cpu time    0.0026: real time    0.0026
    --------------------------------------------
      LOOP:  cpu time   10.8877: real time   10.9587

 eigenvalue-minimisations  :  6480
 total energy-change (2. order) :-0.3105205E+02  (-0.1574084E+02)
 number of electron     452.9999431 magnetization      17.0237645
 augmentation part      127.8426068 magnetization      12.6282744

 Broyden mixing:
  rms(total) = 0.75089E+01    rms(broyden)= 0.75075E+01
  rms(prec ) = 0.10546E+02
  weight for this iteration     100.00

 eigenvalues of (default mixing * dielectric matrix)
  average eigenvalue GAMMA=   0.6760
  1.4750  0.5111  0.5111  0.2069

 Free energy of the ion-electron system (eV)
  ---------------------------------------------------
  alpha Z        PSCENC =      1269.90711959
  Ewald energy   TEWEN  =    -29695.89864203
  -Hartree energ DENC   =    -22688.02942562
  -exchange      EXHF   =         0.00000000
  -V(xc)+E(xc)   XCENC  =      1664.58224759
  PAW double counting   =     61392.73610431   -64234.76940185
  entropy T*S    EENTRO =         0.00000000
  eigenvalues    EBANDS =     -4431.97450299
  atomic energy  EATOM  =     56403.09886247
  Solvation  Ediel_sol  =         0.00000000
  ---------------------------------------------------
  free energy    TOTEN  =      -320.34763853 eV

  energy without entropy =     -320.34763853  energy(sigma->0) =     -320.34763853


--------------------------------------------------------------------------------------------------------




--------------------------------------- Iteration      1(  10)  ---------------------------------------


    POTLOK:  cpu time    0.0921: real time    0.0969
    SETDIJ:  cpu time    0.0129: real time    0.0130
     EDDAV:  cpu time    9.7235: real time    9.7839
 BZINTS: Fermi energy:  6.668028;453.000000 electrons
         Band energy:***********;  BLOECHL correction: -0.169523
       DOS:  cpu time    0.0046: real time    0.0047
    CHARGE:  cpu time    0.5087: real time    0.5118
    MIXING:  cpu time    0.0028: real time    0.0028
    --------------------------------------------
      LOOP:  cpu time   10.3447: real time   10.4130

 eigenvalue-minimisations  :  6096
 total energy-change (2. order) : 0.2056342E+02  (-0.2346469E+02)
 number of electron     452.9999465 magnetization      13.8235469
 augmentation part      133.6942234 magnetization      11.6392584

 Broyden mixing:
  rms(total) = 0.23482E+01    rms(broyden)= 0.23461E+01
  rms(prec ) = 0.33429E+01
  weight for this iteration     100.00

 eigenvalues of (default mixing * dielectric matrix)
  average eigenvalue GAMMA=   0.6725
  1.5960  0.6684  0.4763  0.4763  0.1452

 Free energy of the ion-electron system (eV)
  ---------------------------------------------------
  alpha Z        PSCENC =      1269.90711959
  Ewald energy   TEWEN  =    -29695.89864203
  -Hartree energ DENC   =    -22653.09687056
  -exchange      EXHF   =         0.00000000
  -V(xc)+E(xc)   XCENC  =      1662.28334868
  PAW double counting   =     63679.42869224   -66518.09039172
  entropy T*S    EENTRO =         0.00000000
  eigenvalues    EBANDS =     -4447.41633707
  atomic energy  EATOM  =     56403.09886247
  Solvation  Ediel_sol  =         0.00000000
  ---------------------------------------------------
  free energy    TOTEN  =      -299.78421840 eV

  energy without entropy =     -299.78421840  energy(sigma->0) =     -299.78421840


--------------------------------------------------------------------------------------------------------




--------------------------------------- Iteration      1(  11)  ---------------------------------------


    POTLOK:  cpu time    0.0919: real time    0.0962
    SETDIJ:  cpu time    0.0129: real time    0.0129
     EDDAV:  cpu time   10.9691: real time   11.0392
 BZINTS: Fermi energy:  6.804040;453.000000 electrons
         Band energy:***********;  BLOECHL correction: -0.213367
       DOS:  cpu time    0.0043: real time    0.0043
    CHARGE:  cpu time    0.5220: real time    0.5254
    MIXING:  cpu time    0.0027: real time    0.0028
    --------------------------------------------
      LOOP:  cpu time   11.6029: real time   11.6808

 eigenvalue-minimisations  :  7008
 total energy-change (2. order) :-0.1094688E+01  (-0.4335628E+01)
 number of electron     452.9999467 magnetization      11.7632277
 augmentation part      132.9069953 magnetization       9.7062869

 Broyden mixing:
  rms(total) = 0.24262E+01    rms(broyden)= 0.24249E+01
  rms(prec ) = 0.34756E+01
  weight for this iteration     100.00

 eigenvalues of (default mixing * dielectric matrix)
  average eigenvalue GAMMA=   0.6168
  1.5900  0.7793  0.4988  0.4988  0.1817  0.1520

 Free energy of the ion-electron system (eV)
  ---------------------------------------------------
  alpha Z        PSCENC =      1269.90711959
  Ewald energy   TEWEN  =    -29695.89864203
  -Hartree energ DENC   =    -22678.14361720
  -exchange      EXHF   =         0.00000000
  -V(xc)+E(xc)   XCENC  =      1662.45390794
  PAW double counting   =     63859.46270973   -66702.46276295
  entropy T*S    EENTRO =         0.00000000
  eigenvalues    EBANDS =     -4419.29648408
  atomic energy  EATOM  =     56403.09886247
  Solvation  Ediel_sol  =         0.00000000
  ---------------------------------------------------
  free energy    TOTEN  =      -300.87890653 eV

  energy without entropy =     -300.87890653  energy(sigma->0) =     -300.87890653


--------------------------------------------------------------------------------------------------------




--------------------------------------- Iteration      1(  12)  ---------------------------------------


    POTLOK:  cpu time    0.0955: real time    0.0968
    SETDIJ:  cpu time    0.0130: real time    0.0130
     EDDAV:  cpu time   10.1604: real time   10.2250
 BZINTS: Fermi energy:  6.860958;453.000000 electrons
         Band energy:***********;  BLOECHL correction: -0.302689
       DOS:  cpu time    0.0045: real time    0.0045
    CHARGE:  cpu time    0.5057: real time    0.5093
    MIXING:  cpu time    0.0030: real time    0.0030
    --------------------------------------------
      LOOP:  cpu time   10.7821: real time   10.8516

 eigenvalue-minimisations  :  6432
 total energy-change (2. order) : 0.1831018E+01  (-0.2505839E+01)
 number of electron     452.9999486 magnetization       8.8220661
 augmentation part      132.2357548 magnetization       7.2977679

 Broyden mixing:
  rms(total) = 0.87535E+00    rms(broyden)= 0.87393E+00
  rms(prec ) = 0.11235E+01
  weight for this iteration     100.00

 eigenvalues of (default mixing * dielectric matrix)
  average eigenvalue GAMMA=   0.6608
  1.3726  1.3726  0.5253  0.5253  0.5266  0.1517  0.1517

 Free energy of the ion-electron system (eV)
  ---------------------------------------------------
  alpha Z        PSCENC =      1269.90711959
  Ewald energy   TEWEN  =    -29695.89864203
  -Hartree energ DENC   =    -22704.58190089
  -exchange      EXHF   =         0.00000000
  -V(xc)+E(xc)   XCENC  =      1662.98272711
  PAW double counting   =     63615.52600300   -66463.78425664
  entropy T*S    EENTRO =         0.00000000
  eigenvalues    EBANDS =     -4386.29780096
  atomic energy  EATOM  =     56403.09886247
  Solvation  Ediel_sol  =         0.00000000
  ---------------------------------------------------
  free energy    TOTEN  =      -299.04788835 eV

  energy without entropy =     -299.04788835  energy(sigma->0) =     -299.04788835


--------------------------------------------------------------------------------------------------------




--------------------------------------- Iteration      1(  13)  ---------------------------------------


    POTLOK:  cpu time    0.0965: real time    0.0973
    SETDIJ:  cpu time    0.0129: real time    0.0130
     EDDAV:  cpu time   10.2465: real time   10.3113
 BZINTS: Fermi energy:  6.896597;453.000000 electrons
         Band energy:***********;  BLOECHL correction: -0.451450
       DOS:  cpu time    0.0046: real time    0.0046
    CHARGE:  cpu time    0.5082: real time    0.5116
    MIXING:  cpu time    0.0031: real time    0.0032
    --------------------------------------------
      LOOP:  cpu time   10.8718: real time   10.9410

 eigenvalue-minimisations  :  6480
 total energy-change (2. order) :-0.4424156E+00  (-0.2437082E+00)
 number of electron     452.9999483 magnetization       7.4098045
 augmentation part      132.3861307 magnetization       6.0832673

 Broyden mixing:
  rms(total) = 0.65480E+00    rms(broyden)= 0.65456E+00
  rms(prec ) = 0.86150E+00
  weight for this iteration     100.00

 eigenvalues of (default mixing * dielectric matrix)
  average eigenvalue GAMMA=   0.6704
  1.5057  1.5057  0.5649  0.5649  0.4604  0.4604  0.1508  0.1508

 Free energy of the ion-electron system (eV)
  ---------------------------------------------------
  alpha Z        PSCENC =      1269.90711959
  Ewald energy   TEWEN  =    -29695.89864203
  -Hartree energ DENC   =    -22709.69726754
  -exchange      EXHF   =         0.00000000
  -V(xc)+E(xc)   XCENC  =      1662.99718305
  PAW double counting   =     63422.81094042   -66269.35761349
  entropy T*S    EENTRO =         0.00000000
  eigenvalues    EBANDS =     -4383.35088645
  atomic energy  EATOM  =     56403.09886247
  Solvation  Ediel_sol  =         0.00000000
  ---------------------------------------------------
  free energy    TOTEN  =      -299.49030399 eV

  energy without entropy =     -299.49030399  energy(sigma->0) =     -299.49030399


--------------------------------------------------------------------------------------------------------




--------------------------------------- Iteration      1(  14)  ---------------------------------------


    POTLOK:  cpu time    0.0923: real time    0.0972
    SETDIJ:  cpu time    0.0129: real time    0.0129
     EDDAV:  cpu time    9.8258: real time    9.8874
 BZINTS: Fermi energy:  6.870350;453.000000 electrons
         Band energy:***********;  BLOECHL correction: -0.343495
       DOS:  cpu time    0.0048: real time    0.0048
    CHARGE:  cpu time    0.5091: real time    0.5123
    MIXING:  cpu time    0.0032: real time    0.0032
    --------------------------------------------
      LOOP:  cpu time   10.4481: real time   10.5178

 eigenvalue-minimisations  :  6144
 total energy-change (2. order) :-0.1269821E+00  (-0.1937543E+00)
 number of electron     452.9999483 magnetization       5.2619891
 augmentation part      132.3446409 magnetization       4.2915574

 Broyden mixing:
  rms(total) = 0.88359E+00    rms(broyden)= 0.88302E+00
  rms(prec ) = 0.11753E+01
  weight for this iteration     100.00

 eigenvalues of (default mixing * dielectric matrix)
  average eigenvalue GAMMA=   0.6535
  1.6000  1.6000  0.6332  0.6332  0.4980  0.4980  0.1505  0.1505  0.1183

 Free energy of the ion-electron system (eV)
  ---------------------------------------------------
  alpha Z        PSCENC =      1269.90711959
  Ewald energy   TEWEN  =    -29695.89864203
  -Hartree energ DENC   =    -22714.62006324
  -exchange      EXHF   =         0.00000000
  -V(xc)+E(xc)   XCENC  =      1663.11302452
  PAW double counting   =     63303.61400417   -66149.62950307
  entropy T*S    EENTRO =         0.00000000
  eigenvalues    EBANDS =     -4379.20208853
  atomic energy  EATOM  =     56403.09886247
  Solvation  Ediel_sol  =         0.00000000
  ---------------------------------------------------
  free energy    TOTEN  =      -299.61728613 eV

  energy without entropy =     -299.61728613  energy(sigma->0) =     -299.61728613


--------------------------------------------------------------------------------------------------------




--------------------------------------- Iteration      1(  15)  ---------------------------------------


    POTLOK:  cpu time    0.0922: real time    0.0967
    SETDIJ:  cpu time    0.0129: real time    0.0130
     EDDAV:  cpu time   10.0161: real time   10.0888
 BZINTS: Fermi energy:  6.919819;453.000000 electrons
         Band energy:***********;  BLOECHL correction: -0.440578
       DOS:  cpu time    0.0048: real time    0.0048
    CHARGE:  cpu time    0.5087: real time    0.5129
    MIXING:  cpu time    0.0031: real time    0.0032
    --------------------------------------------
      LOOP:  cpu time   10.6378: real time   10.7194

 eigenvalue-minimisations  :  6288
 total energy-change (2. order) : 0.5382646E-01  (-0.8860137E-01)
 number of electron     452.9999484 magnetization       2.6065252
 augmentation part      132.2303275 magnetization       1.7675336

 Broyden mixing:
  rms(total) = 0.30823E+00    rms(broyden)= 0.30796E+00
  rms(prec ) = 0.36367E+00
  weight for this iteration     100.00

 eigenvalues of (default mixing * dielectric matrix)
  average eigenvalue GAMMA=   0.7375
  1.8323  1.8323  0.8423  0.8423  0.5118  0.5118  0.5563  0.1510  0.1510  0.1440

 Free energy of the ion-electron system (eV)
  ---------------------------------------------------
  alpha Z        PSCENC =      1269.90711959
  Ewald energy   TEWEN  =    -29695.89864203
  -Hartree energ DENC   =    -22725.18861947
  -exchange      EXHF   =         0.00000000
  -V(xc)+E(xc)   XCENC  =      1663.39325480
  PAW double counting   =     63124.28339416   -65969.82690037
  entropy T*S    EENTRO =         0.00000000
  eigenvalues    EBANDS =     -4369.33192882
  atomic energy  EATOM  =     56403.09886247
  Solvation  Ediel_sol  =         0.00000000
  ---------------------------------------------------
  free energy    TOTEN  =      -299.56345966 eV

  energy without entropy =     -299.56345966  energy(sigma->0) =     -299.56345966


--------------------------------------------------------------------------------------------------------




--------------------------------------- Iteration      1(  16)  ---------------------------------------


    POTLOK:  cpu time    0.0919: real time    0.0968
    SETDIJ:  cpu time    0.0130: real time    0.0130
     EDDAV:  cpu time   10.3609: real time   10.4346
 BZINTS: Fermi energy:  6.936884;453.000000 electrons
         Band energy:***********;  BLOECHL correction: -0.460613
       DOS:  cpu time    0.0039: real time    0.0039
    CHARGE:  cpu time    0.5095: real time    0.5135
    MIXING:  cpu time    0.0035: real time    0.0035
    --------------------------------------------
      LOOP:  cpu time   10.9826: real time   11.0654

 eigenvalue-minimisations  :  6576
 total energy-change (2. order) :-0.7054559E-01  (-0.1052310E-01)
 number of electron     452.9999484 magnetization       1.9099182
 augmentation part      132.1403007 magnetization       1.4084250

 Broyden mixing:
  rms(total) = 0.14935E+00    rms(broyden)= 0.14919E+00
  rms(prec ) = 0.17537E+00
  weight for this iteration     100.00

 eigenvalues of (default mixing * dielectric matrix)
  average eigenvalue GAMMA=   0.7817
  2.4405  1.2224  1.1574  1.1574  0.5613  0.5613  0.5263  0.5263  0.1510  0.1510
  0.1437

 Free energy of the ion-electron system (eV)
  ---------------------------------------------------
  alpha Z        PSCENC =      1269.90711959
  Ewald energy   TEWEN  =    -29695.89864203
  -Hartree energ DENC   =    -22733.74092185
  -exchange      EXHF   =         0.00000000
  -V(xc)+E(xc)   XCENC  =      1663.58481188
  PAW double counting   =     63095.06843138   -65939.32509413
  entropy T*S    EENTRO =         0.00000000
  eigenvalues    EBANDS =     -4362.32857256
  atomic energy  EATOM  =     56403.09886247
  Solvation  Ediel_sol  =         0.00000000
  ---------------------------------------------------
  free energy    TOTEN  =      -299.63400525 eV

  energy without entropy =     -299.63400525  energy(sigma->0) =     -299.63400525


--------------------------------------------------------------------------------------------------------




--------------------------------------- Iteration      1(  17)  ---------------------------------------


    POTLOK:  cpu time    0.0906: real time    0.0965
    SETDIJ:  cpu time    0.0131: real time    0.0131
     EDDAV:  cpu time   10.4777: real time   10.5441
 BZINTS: Fermi energy:  6.942010;453.000000 electrons
         Band energy:***********;  BLOECHL correction: -0.473107
       DOS:  cpu time    0.0044: real time    0.0044
    CHARGE:  cpu time    0.5113: real time    0.5144
    MIXING:  cpu time    0.0036: real time    0.0036
    --------------------------------------------
      LOOP:  cpu time   11.1007: real time   11.1762

 eigenvalue-minimisations  :  6624
 total energy-change (2. order) :-0.2326710E-01  (-0.2075134E-02)
 number of electron     452.9999485 magnetization       1.5303118
 augmentation part      132.0885661 magnetization       1.1474748

 Broyden mixing:
  rms(total) = 0.11382E+00    rms(broyden)= 0.11372E+00
  rms(prec ) = 0.13614E+00
  weight for this iteration     100.00

 eigenvalues of (default mixing * dielectric matrix)
  average eigenvalue GAMMA=   0.8186
  2.6553  1.3495  1.3495  1.1008  0.6863  0.6863  0.5095  0.5095  0.5311  0.1510
  0.1510  0.1436

 Free energy of the ion-electron system (eV)
  ---------------------------------------------------
  alpha Z        PSCENC =      1269.90711959
  Ewald energy   TEWEN  =    -29695.89864203
  -Hartree energ DENC   =    -22735.71568663
  -exchange      EXHF   =         0.00000000
  -V(xc)+E(xc)   XCENC  =      1663.60493514
  PAW double counting   =     63114.65367931   -65958.50481355
  entropy T*S    EENTRO =         0.00000000
  eigenvalues    EBANDS =     -4360.80272665
  atomic energy  EATOM  =     56403.09886247
  Solvation  Ediel_sol  =         0.00000000
  ---------------------------------------------------
  free energy    TOTEN  =      -299.65727236 eV

  energy without entropy =     -299.65727236  energy(sigma->0) =     -299.65727236


--------------------------------------------------------------------------------------------------------




--------------------------------------- Iteration      1(  18)  ---------------------------------------


    POTLOK:  cpu time    0.0945: real time    0.0973
    SETDIJ:  cpu time    0.0131: real time    0.0131
     EDDAV:  cpu time   10.8860: real time   10.9557
 BZINTS: Fermi energy:  6.944809;453.000000 electrons
         Band energy:***********;  BLOECHL correction: -0.480400
       DOS:  cpu time    0.0047: real time    0.0047
    CHARGE:  cpu time    0.5121: real time    0.5153
    MIXING:  cpu time    0.0036: real time    0.0036
    --------------------------------------------
      LOOP:  cpu time   11.5139: real time   11.5897

 eigenvalue-minimisations  :  6960
 total energy-change (2. order) :-0.1007368E-01  (-0.6245917E-03)
 number of electron     452.9999485 magnetization       1.1166607
 augmentation part      132.0645525 magnetization       0.7990401

 Broyden mixing:
  rms(total) = 0.88168E-01    rms(broyden)= 0.88099E-01
  rms(prec ) = 0.10715E+00
  weight for this iteration     100.00

 eigenvalues of (default mixing * dielectric matrix)
  average eigenvalue GAMMA=   0.9078
  3.0342  1.6775  1.6775  0.9654  0.9654  0.8449  0.5166  0.5166  0.5788  0.5788
  0.1510  0.1510  0.1436

 Free energy of the ion-electron system (eV)
  ---------------------------------------------------
  alpha Z        PSCENC =      1269.90711959
  Ewald energy   TEWEN  =    -29695.89864203
  -Hartree energ DENC   =    -22736.52647222
  -exchange      EXHF   =         0.00000000
  -V(xc)+E(xc)   XCENC  =      1663.61010864
  PAW double counting   =     63099.30329762   -65942.92549568
  entropy T*S    EENTRO =         0.00000000
  eigenvalues    EBANDS =     -4360.23612442
  atomic energy  EATOM  =     56403.09886247
  Solvation  Ediel_sol  =         0.00000000
  ---------------------------------------------------
  free energy    TOTEN  =      -299.66734604 eV

  energy without entropy =     -299.66734604  energy(sigma->0) =     -299.66734604


--------------------------------------------------------------------------------------------------------




--------------------------------------- Iteration      1(  19)  ---------------------------------------


    POTLOK:  cpu time    0.0950: real time    0.0974
    SETDIJ:  cpu time    0.0130: real time    0.0130
     EDDAV:  cpu time   10.8367: real time   10.9049
 BZINTS: Fermi energy:  6.948803;453.000000 electrons
         Band energy:***********;  BLOECHL correction: -0.485865
       DOS:  cpu time    0.0047: real time    0.0047
    CHARGE:  cpu time    0.5095: real time    0.5126
    MIXING:  cpu time    0.0036: real time    0.0037
    --------------------------------------------
      LOOP:  cpu time   11.4625: real time   11.5363

 eigenvalue-minimisations  :  6912
 total energy-change (2. order) :-0.6192668E-02  (-0.5046568E-03)
 number of electron     452.9999485 magnetization       0.7292089
 augmentation part      132.0300025 magnetization       0.4810264

 Broyden mixing:
  rms(total) = 0.59303E-01    rms(broyden)= 0.59202E-01
  rms(prec ) = 0.73811E-01
  weight for this iteration     100.00

 eigenvalues of (default mixing * dielectric matrix)
  average eigenvalue GAMMA=   0.9984
  3.7492  1.6720  1.6720  1.6832  0.9229  0.9229  0.5149  0.5149  0.6466  0.6466
  0.5870  0.1510  0.1510  0.1436

 Free energy of the ion-electron system (eV)
  ---------------------------------------------------
  alpha Z        PSCENC =      1269.90711959
  Ewald energy   TEWEN  =    -29695.89864203
  -Hartree energ DENC   =    -22737.82886274
  -exchange      EXHF   =         0.00000000
  -V(xc)+E(xc)   XCENC  =      1663.63389162
  PAW double counting   =     63055.77137347   -65899.21616526
  entropy T*S    EENTRO =         0.00000000
  eigenvalues    EBANDS =     -4359.14111583
  atomic energy  EATOM  =     56403.09886247
  Solvation  Ediel_sol  =         0.00000000
  ---------------------------------------------------
  free energy    TOTEN  =      -299.67353870 eV

  energy without entropy =     -299.67353870  energy(sigma->0) =     -299.67353870


--------------------------------------------------------------------------------------------------------




--------------------------------------- Iteration      1(  20)  ---------------------------------------


    POTLOK:  cpu time    0.0917: real time    0.0955
    SETDIJ:  cpu time    0.0130: real time    0.0131
     EDDAV:  cpu time   11.5972: real time   11.6704
 BZINTS: Fermi energy:  6.952192;453.000000 electrons
         Band energy:***********;  BLOECHL correction: -0.490075
       DOS:  cpu time    0.0046: real time    0.0046
    CHARGE:  cpu time    0.5147: real time    0.5178
    MIXING:  cpu time    0.0040: real time    0.0040
    --------------------------------------------
      LOOP:  cpu time   12.2252: real time   12.3054

 eigenvalue-minimisations  :  7440
 total energy-change (2. order) :-0.3514779E-02  (-0.4852165E-03)
 number of electron     452.9999485 magnetization       0.5912493
 augmentation part      131.9930601 magnetization       0.4017769

 Broyden mixing:
  rms(total) = 0.27219E-01    rms(broyden)= 0.27047E-01
  rms(prec ) = 0.31043E-01
  weight for this iteration     100.00

 eigenvalues of (default mixing * dielectric matrix)
  average eigenvalue GAMMA=   1.0262
  3.8486  1.9389  1.7799  1.7799  1.0047  0.8732  0.8732  0.5152  0.5152  0.6144
  0.6144  0.5898  0.1510  0.1510  0.1436

 Free energy of the ion-electron system (eV)
  ---------------------------------------------------
  alpha Z        PSCENC =      1269.90711959
  Ewald energy   TEWEN  =    -29695.89864203
  -Hartree energ DENC   =    -22739.06666030
  -exchange      EXHF   =         0.00000000
  -V(xc)+E(xc)   XCENC  =      1663.66139923
  PAW double counting   =     63005.54484275   -65848.90623578
  entropy T*S    EENTRO =         0.00000000
  eigenvalues    EBANDS =     -4358.01773941
  atomic energy  EATOM  =     56403.09886247
  Solvation  Ediel_sol  =         0.00000000
  ---------------------------------------------------
  free energy    TOTEN  =      -299.67705348 eV

  energy without entropy =     -299.67705348  energy(sigma->0) =     -299.67705348


--------------------------------------------------------------------------------------------------------




--------------------------------------- Iteration      1(  21)  ---------------------------------------


    POTLOK:  cpu time    0.0938: real time    0.0966
    SETDIJ:  cpu time    0.0131: real time    0.0131
     EDDAV:  cpu time   11.1419: real time   11.2147
 BZINTS: Fermi energy:  6.952520;453.000000 electrons
         Band energy:***********;  BLOECHL correction: -0.491662
       DOS:  cpu time    0.0046: real time    0.0047
    CHARGE:  cpu time    0.5120: real time    0.5151
    MIXING:  cpu time    0.0040: real time    0.0040
    --------------------------------------------
      LOOP:  cpu time   11.7694: real time   11.8482

 eigenvalue-minimisations  :  7152
 total energy-change (2. order) :-0.1743743E-02  (-0.2195664E-03)
 number of electron     452.9999485 magnetization       0.5331147
 augmentation part      131.9898284 magnetization       0.3597213

 Broyden mixing:
  rms(total) = 0.17897E-01    rms(broyden)= 0.17834E-01
  rms(prec ) = 0.20325E-01
  weight for this iteration     100.00

 eigenvalues of (default mixing * dielectric matrix)
  average eigenvalue GAMMA=   1.0359
[...]
   0.225E+01 0.143E+01 0.143E+01   -.246E+01 -.161E+01 -.161E+01   0.205E+00 0.178E+00 0.178E+00   0.288E-04 -.438E-04 -.438E-04
   0.143E+01 -.143E+01 0.225E+01   -.161E+01 0.161E+01 -.246E+01   0.178E+00 -.178E+00 0.205E+00   -.438E-04 0.438E-04 0.288E-04
   0.143E+01 0.225E+01 -.143E+01   -.161E+01 -.246E+01 0.161E+01   0.178E+00 0.205E+00 -.178E+00   -.438E-04 0.288E-04 0.438E-04
   -.143E+01 -.225E+01 0.143E+01   0.161E+01 0.246E+01 -.161E+01   -.178E+00 -.205E+00 0.178E+00   0.438E-04 -.288E-04 -.438E-04
   -.143E+01 0.143E+01 -.225E+01   0.161E+01 -.161E+01 0.246E+01   -.178E+00 0.178E+00 -.205E+00   0.438E-04 -.438E-04 -.288E-04
   -.152E-12 0.771E-12 -.106E-11   0.442E-13 -.333E-15 -.142E-13   -.726E-27 0.354E-27 0.129E-26   0.454E-12 -.224E-12 -.276E-12
   0.768E-07 0.253E+02 -.253E+02   -.152E-12 -.240E+02 0.240E+02   -.699E-19 -.130E+01 0.130E+01   0.223E-12 0.611E-03 -.611E-03
   -.366E+02 -.161E+02 0.366E+02   0.368E+02 0.135E+02 -.368E+02   -.135E+00 0.260E+01 0.135E+00   0.149E-02 0.169E-03 -.149E-02
   0.366E+02 -.366E+02 0.161E+02   -.368E+02 0.368E+02 -.135E+02   0.135E+00 -.135E+00 -.260E+01   -.149E-02 0.149E-02 -.169E-03
   -.919E-11 0.408E-10 0.563E-11   -.150E-12 -.199E-12 -.153E-12   0.149E-25 -.638E-26 0.246E-25   0.163E-11 0.812E-12 0.703E-12
   0.321E-11 -.615E-12 0.197E-10   0.329E-13 0.704E-13 -.284E-13   0.373E-25 0.153E-25 -.212E-25   -.252E-11 -.271E-11 0.840E-12
   -.366E+02 0.366E+02 -.161E+02   0.368E+02 -.368E+02 0.135E+02   -.135E+00 0.135E+00 0.260E+01   0.149E-02 -.149E-02 0.169E-03
   -.253E+02 0.576E-07 -.253E+02   0.240E+02 0.240E-13 0.240E+02   0.130E+01 -.670E-19 0.130E+01   -.611E-03 -.428E-12 -.611E-03
   0.161E+02 0.366E+02 0.366E+02   -.135E+02 -.368E+02 -.368E+02   -.260E+01 0.135E+00 0.135E+00   -.169E-03 -.149E-02 -.149E-02
   0.366E+02 0.161E+02 -.366E+02   -.368E+02 -.135E+02 0.368E+02   0.135E+00 -.260E+01 -.135E+00   -.149E-02 -.169E-03 0.149E-02
   -.253E+02 -.253E+02 0.135E-04   0.240E+02 0.240E+02 -.178E-13   0.130E+01 0.130E+01 -.423E-20   -.611E-03 -.611E-03 0.909E-12
   -.768E-07 -.253E+02 0.253E+02   -.324E-13 0.240E+02 -.240E+02   0.124E-18 0.130E+01 -.130E+01   -.199E-11 -.611E-03 0.611E-03
   0.310E-11 0.347E-11 0.176E-10   -.349E-13 0.269E-13 0.119E-12   0.180E-25 0.144E-25 0.569E-26   0.183E-11 0.983E-12 -.440E-11
   0.253E+02 -.576E-07 0.253E+02   -.240E+02 0.249E-13 -.240E+02   -.130E+01 -.168E-18 -.130E+01   0.611E-03 -.163E-11 0.611E-03
   0.253E+02 0.253E+02 -.135E-04   -.240E+02 -.240E+02 -.121E-12   -.130E+01 -.130E+01 -.200E-18   0.611E-03 0.611E-03 -.869E-11
   -.161E+02 -.366E+02 -.366E+02   0.135E+02 0.368E+02 0.368E+02   0.260E+01 -.135E+00 -.135E+00   0.169E-03 0.149E-02 0.149E-02
   0.762E-11 0.307E-10 0.350E-10   -.430E-12 -.123E-12 -.199E-12   -.145E-26 -.107E-25 0.143E-25   -.326E-11 -.259E-11 -.267E-11
   -.211E+03 -.158E+03 0.211E+03   0.213E+03 0.159E+03 -.213E+03   -.207E+01 -.701E+00 0.207E+01   -.375E-03 0.593E-03 0.375E-03
   0.194E+03 -.194E+03 0.200E+03   -.194E+03 0.194E+03 -.199E+03   0.421E-01 -.421E-01 -.172E+00   -.440E-03 0.440E-03 0.345E-03
   0.219E+03 -.219E+03 -.219E+03   -.223E+03 0.223E+03 0.223E+03   0.330E+01 -.330E+01 -.330E+01   -.535E-03 0.535E-03 0.535E-03
   -.200E+03 -.194E+03 -.194E+03   0.199E+03 0.194E+03 0.194E+03   0.172E+00 -.421E-01 -.421E-01   -.345E-03 0.440E-03 0.440E-03
   -.211E+03 0.211E+03 -.158E+03   0.213E+03 -.213E+03 0.159E+03   -.207E+01 0.207E+01 -.701E+00   -.375E-03 0.375E-03 0.593E-03
   0.194E+03 0.200E+03 -.194E+03   -.194E+03 -.199E+03 0.194E+03   0.421E-01 -.172E+00 -.421E-01   -.440E-03 0.345E-03 0.440E-03
   0.158E+03 0.211E+03 0.211E+03   -.159E+03 -.213E+03 -.213E+03   0.701E+00 0.207E+01 0.207E+01   -.593E-03 0.375E-03 0.375E-03
   -.219E+03 0.219E+03 0.219E+03   0.223E+03 -.223E+03 -.223E+03   -.330E+01 0.330E+01 0.330E+01   0.535E-03 -.535E-03 -.535E-03
   -.183E+03 -.178E+03 0.193E+03   0.183E+03 0.178E+03 -.193E+03   -.445E-01 0.294E+00 -.316E+00   -.593E-03 -.740E-04 0.314E-03
   -.178E+03 -.193E+03 -.183E+03   0.178E+03 0.193E+03 0.183E+03   0.294E+00 0.316E+00 -.445E-01   -.740E-04 -.314E-03 -.593E-03
   -.183E+03 0.193E+03 -.178E+03   0.183E+03 -.193E+03 0.178E+03   -.445E-01 -.316E+00 0.294E+00   -.593E-03 0.314E-03 -.740E-04
   -.186E+03 0.189E+03 0.186E+03   0.186E+03 -.188E+03 -.186E+03   -.210E+00 -.692E+00 0.210E+00   -.455E-03 -.465E-03 0.455E-03
   0.200E+03 0.194E+03 0.194E+03   -.199E+03 -.194E+03 -.194E+03   -.172E+00 0.421E-01 0.421E-01   0.345E-03 -.440E-03 -.440E-03
   0.211E+03 0.158E+03 -.211E+03   -.213E+03 -.159E+03 0.213E+03   0.207E+01 0.701E+00 -.207E+01   0.375E-03 -.593E-03 -.375E-03
   0.189E+03 -.186E+03 -.186E+03   -.188E+03 0.186E+03 0.186E+03   -.692E+00 -.210E+00 -.210E+00   -.465E-03 -.455E-03 -.455E-03
   0.183E+03 -.193E+03 0.178E+03   -.183E+03 0.193E+03 -.178E+03   0.445E-01 0.316E+00 -.294E+00   0.593E-03 -.314E-03 0.740E-04
   -.194E+03 -.200E+03 0.194E+03   0.194E+03 0.199E+03 -.194E+03   -.421E-01 0.172E+00 0.421E-01   0.440E-03 -.345E-03 -.440E-03
   -.186E+03 0.186E+03 0.189E+03   0.186E+03 -.186E+03 -.188E+03   -.210E+00 0.210E+00 -.692E+00   -.455E-03 0.455E-03 -.465E-03
   0.178E+03 0.183E+03 0.193E+03   -.178E+03 -.183E+03 -.193E+03   -.294E+00 0.445E-01 -.316E+00   0.740E-04 0.593E-03 0.314E-03
   0.211E+03 -.211E+03 0.158E+03   -.213E+03 0.213E+03 -.159E+03   0.207E+01 -.207E+01 0.701E+00   0.375E-03 -.375E-03 -.593E-03
   0.186E+03 -.189E+03 -.186E+03   -.186E+03 0.188E+03 0.186E+03   0.210E+00 0.692E+00 -.210E+00   0.455E-03 0.465E-03 -.455E-03
   0.183E+03 0.178E+03 -.193E+03   -.183E+03 -.178E+03 0.193E+03   0.445E-01 -.294E+00 0.316E+00   0.593E-03 0.740E-04 -.314E-03
   -.193E+03 0.183E+03 -.178E+03   0.193E+03 -.183E+03 0.178E+03   0.316E+00 0.445E-01 0.294E+00   -.314E-03 0.593E-03 -.740E-04
   -.178E+03 -.183E+03 -.193E+03   0.178E+03 0.183E+03 0.193E+03   0.294E+00 -.445E-01 0.316E+00   -.740E-04 -.593E-03 -.314E-03
   -.193E+03 -.178E+03 0.183E+03   0.193E+03 0.178E+03 -.183E+03   0.316E+00 0.294E+00 0.445E-01   -.314E-03 -.740E-04 0.593E-03
   0.186E+03 -.186E+03 -.189E+03   -.186E+03 0.186E+03 0.188E+03   0.210E+00 -.210E+00 0.692E+00   0.455E-03 -.455E-03 0.465E-03
   -.194E+03 0.194E+03 -.200E+03   0.194E+03 -.194E+03 0.199E+03   -.421E-01 0.421E-01 0.172E+00   0.440E-03 -.440E-03 -.345E-03
   0.178E+03 0.193E+03 0.183E+03   -.178E+03 -.193E+03 -.183E+03   -.294E+00 -.316E+00 0.445E-01   0.740E-04 0.314E-03 0.593E-03
   -.158E+03 -.211E+03 -.211E+03   0.159E+03 0.213E+03 0.213E+03   -.701E+00 -.207E+01 -.207E+01   0.593E-03 -.375E-03 -.375E-03
   -.189E+03 0.186E+03 0.186E+03   0.188E+03 -.186E+03 -.186E+03   0.692E+00 0.210E+00 0.210E+00   0.465E-03 0.455E-03 0.455E-03
   0.193E+03 0.178E+03 -.183E+03   -.193E+03 -.178E+03 0.183E+03   -.316E+00 -.294E+00 -.445E-01   0.314E-03 0.740E-04 -.593E-03
   0.193E+03 -.183E+03 0.178E+03   -.193E+03 0.183E+03 -.178E+03   -.316E+00 -.445E-01 -.294E+00   0.314E-03 -.593E-03 0.740E-04
 -----------------------------------------------------------------------------------------------
   0.728E-10 0.172E-09 0.294E-09   0.568E-13 -.853E-13 -.227E-12   0.722E-15 -.493E-15 0.000E+00   -.839E-11 0.535E-11 0.547E-11
 
 
 POSITION                                       TOTAL-FORCE (eV/Angst)
 -----------------------------------------------------------------------------------
      0.02143      0.01058      0.01058         0.002826     -0.002522     -0.002522
      2.37925      7.19146      7.19146        -0.002826      0.002522      0.002522
      4.79078      0.01058      4.77993         0.002522     -0.002522     -0.002826
      4.79078      4.77993      0.01058         0.002522     -0.002826     -0.002522
      7.21263      2.42211      7.19146        -0.002522      0.002826      0.002522
      7.21263      7.19146      2.42211        -0.002522      0.002522      0.002826
      1.20034      3.60102      3.60102        -0.000000     -0.000000      0.000000
      1.20034      1.18975      6.01229        -0.000000      0.001614     -0.001614
      8.37810      8.38749      6.02598        -0.003080      0.001945      0.003080
      3.62530      1.17606      8.41728         0.003080     -0.003080     -0.001945
      6.00170      8.40238      8.40238        -0.000000     -0.000000      0.000000
      1.20034      3.60102      8.40238        -0.000000     -0.000000      0.000000
      8.37810      6.02598      8.38749        -0.003080      0.003080      0.001945
      3.61161      3.60102      6.01229        -0.001614     -0.000000     -0.001614
      6.01660      6.02598      6.02598        -0.001945      0.003080      0.003080
      3.62530      8.41728      1.17606         0.003080     -0.001945     -0.003080
      3.61161      6.01229      3.60102        -0.001614     -0.001614      0.000000
      1.20034      6.01229      1.18975        -0.000000     -0.001614      0.001614
      1.20034      8.40238      3.60102        -0.000000     -0.000000      0.000000
      8.39180      3.60102      1.18975         0.001614     -0.000000      0.001614
      8.39180      1.18975      3.60102         0.001614      0.001614      0.000000
      5.98681      1.17606      1.17606         0.001945     -0.003080     -0.003080
      6.00170      3.60102      3.60102        -0.000000     -0.000000      0.000000
      1.03274      1.17998      3.76863         0.002871      0.000102     -0.002871
      6.12357      8.28052      6.13745         0.000943     -0.000943      0.001195
      3.75953      1.04183      1.04183         0.003160     -0.003160     -0.003160
      8.26664      8.28052      8.28052        -0.001195     -0.000943     -0.000943
      1.03274      3.76863      1.17998         0.002871     -0.002871      0.000102
      6.12357      6.13745      8.28052         0.000943      0.001195     -0.000943
      3.62138      3.76863      3.76863        -0.000102     -0.002871     -0.002871
      8.24387      6.16021      6.16021        -0.003160      0.003160      0.003160
      1.05499      5.86362      8.52157         0.003259     -0.002160      0.004792
      3.46294      8.28320      3.45568        -0.002160     -0.004792      0.003259
      1.05499      8.52157      5.86362         0.003259      0.004792     -0.002160
      3.47180      6.12401      1.32956        -0.000378     -0.003709      0.000378
      3.73677      8.52425      8.52425         0.001195      0.000943      0.000943
      1.36795      6.02206      3.43342        -0.002871     -0.000102      0.002871
      3.72333      5.87248      5.87248        -0.003709     -0.000378     -0.000378
      1.34569      8.28320      1.33842        -0.003259     -0.004792      0.002160
      5.87983      1.06459      8.52425        -0.000943     -0.001195      0.000943
      3.47180      1.32956      6.12401        -0.000378      0.000378     -0.003709
      8.54046      3.74637      8.52157         0.002160     -0.003259      0.004792
      1.36795      3.43342      6.02206        -0.002871      0.002871     -0.000102
      8.53160      1.07804      5.87248         0.000378      0.003709     -0.000378
      1.34569      1.33842      8.28320        -0.003259      0.002160     -0.004792
      5.88252      3.74637      5.86362        -0.004792     -0.003259     -0.002160
      3.46294      3.45568      8.28320        -0.002160      0.003259     -0.004792
      5.88252      5.86362      3.74637        -0.004792     -0.002160     -0.003259
      8.53160      5.87248      1.07804         0.000378     -0.000378      0.003709
      5.87983      8.52425      1.06459        -0.000943      0.000943     -0.001195
      8.54046      8.52157      3.74637         0.002160      0.004792     -0.003259
      8.38203      3.43342      3.43342         0.000102      0.002871      0.002871
      8.28008      1.32956      1.32956         0.003709      0.000378      0.000378
      6.12089      1.33842      3.45568         0.004792      0.002160      0.003259
      6.12089      3.45568      1.33842         0.004792      0.003259      0.002160
 -----------------------------------------------------------------------------------
    total drift:                                0.000000      0.000000      0.000000


--------------------------------------------------------------------------------------------------------



  FREE ENERGIE OF THE ION-ELECTRON SYSTEM (eV)
  ---------------------------------------------------
  free  energy   TOTEN  =      -299.99163437 eV

  energy  without entropy=     -299.99163437  energy(sigma->0) =     -299.99163437
 
 d Force = 0.1989805E-03[ 0.516E-04, 0.346E-03]  d Energy =-0.2335898E-03 0.433E-03
 d Force =-0.1125604E+01[-0.113E+01,-0.112E+01]  d Ewald  =-0.1125605E+01 0.824E-06


--------------------------------------------------------------------------------------------------------


    POTLOK:  cpu time    0.1020: real time    0.1025


--------------------------------------------------------------------------------------------------------


 Conjugate gradient step on ions:
 trial-energy change:    0.000234  1 .order   -0.000199   -0.000346   -0.000052
  (g-gl).g = 0.142E-03      g.g   = 0.181E-03  gl.gl    = 0.608E-03
 g(Force)  = 0.181E-03   g(Stress)= 0.000E+00 ortho     = 0.115E-04
 gamma     =   0.23446
 trial     =   1.88106
 opt step  =   2.21071  (harmonic =   2.21071) maximal distance =0.00172802
 next E    =  -299.992071   (d E  =  -0.00020)


--------------------------------------------------------------------------------------------------------


  
 reached required accuracy - stopping structural energy minimisation
     LOOP+:  cpu time  103.8086: real time  104.5019
    4ORBIT:  cpu time    0.0000: real time    0.0000
 


 total charge     
 
# of ion       s       p       d       tot
------------------------------------------
    1        0.388   0.359   0.000   0.747
    2        0.388   0.359   0.000   0.747
    3        0.387   0.360   0.000   0.747
    4        0.388   0.360   0.000   0.748
    5        0.388   0.360   0.000   0.748
    6        0.387   0.360   0.000   0.747
    7        0.382   0.316   0.000   0.697
    8        0.422   6.533   7.372  14.327
    9        0.420   6.521   7.394  14.334
   10        0.420   6.521   7.385  14.326
   11        0.416   6.518   7.424  14.358
   12        0.393   6.455   7.380  14.228
   13        0.420   6.521   7.385  14.326
   14        0.422   6.532   7.423  14.377
   15        0.419   6.521   7.477  14.416
   16        0.420   6.521   7.394  14.334
   17        0.422   6.533   7.444  14.398
   18        0.422   6.533   7.372  14.327
   19        0.392   6.460   7.379  14.231
   20        0.422   6.532   7.423  14.377
   21        0.422   6.533   7.444  14.398
   22        0.419   6.521   7.477  14.416
   23        0.391   6.464   7.457  14.312
   24        1.343   2.342   0.000   3.686
   25        1.328   2.385   0.000   3.713
   26        1.358   2.300   0.000   3.658
   27        1.328   2.379   0.000   3.706
   28        1.342   2.337   0.000   3.680
   29        1.328   2.384   0.000   3.712
   30        1.344   2.361   0.000   3.705
   31        1.358   2.300   0.000   3.658
   32        1.326   2.388   0.000   3.714
   33        1.327   2.389   0.000   3.716
   34        1.326   2.388   0.000   3.714
   35        1.328   2.387   0.000   3.715
   36        1.328   2.379   0.000   3.706
   37        1.343   2.342   0.000   3.686
   38        1.329   2.386   0.000   3.715
   39        1.326   2.388   0.000   3.714
   40        1.328   2.384   0.000   3.712
   41        1.327   2.388   0.000   3.715
   42        1.327   2.389   0.000   3.716
   43        1.342   2.337   0.000   3.680
   44        1.328   2.387   0.000   3.715
   45        1.326   2.388   0.000   3.714
   46        1.328   2.394   0.000   3.722
   47        1.327   2.389   0.000   3.716
   48        1.328   2.393   0.000   3.722
   49        1.327   2.388   0.000   3.715
   50        1.328   2.385   0.000   3.713
   51        1.327   2.389   0.000   3.716
   52        1.344   2.361   0.000   3.705
   53        1.329   2.386   0.000   3.715
   54        1.328   2.393   0.000   3.722
   55        1.328   2.394   0.000   3.722
--------------------------------------------------
tot         51.982 182.673 118.629 353.283
 


 magnetization (x)
 
# of ion       s       p       d       tot
------------------------------------------
    1        0.002   0.003   0.000   0.005
    2        0.002   0.003   0.000   0.005
    3        0.001   0.003   0.000   0.004
    4        0.002   0.004   0.000   0.006
    5        0.002   0.004   0.000   0.006
    6        0.001   0.003   0.000   0.004
    7        0.019   0.027   0.000   0.046
    8       -0.000   0.000   0.014   0.014
    9       -0.000   0.000   0.040   0.041
   10       -0.000   0.001   0.049   0.049
   11        0.001   0.001   0.258   0.260
   12        0.004   0.005   0.558   0.567
   13       -0.000   0.001   0.049   0.049
   14       -0.000  -0.000   0.023   0.022
   15       -0.000   0.000   0.065   0.064
   16       -0.000   0.000   0.040   0.041
   17       -0.000  -0.000   0.040   0.040
   18       -0.000   0.000   0.014   0.014
   19        0.004   0.007   0.555   0.566
   20       -0.000  -0.000   0.023   0.022
   21       -0.000  -0.000   0.040   0.040
   22       -0.000   0.000   0.065   0.064
   23        0.004   0.008   0.647   0.659
   24        0.006   0.007   0.000   0.014
   25        0.003  -0.002   0.000   0.001
   26        0.000  -0.005   0.000  -0.004
   27        0.003  -0.006   0.000  -0.003
   28        0.005   0.004   0.000   0.009
   29        0.003  -0.002   0.000   0.001
   30        0.007   0.023   0.000   0.030
   31        0.000  -0.005   0.000  -0.004
   32        0.003  -0.006   0.000  -0.003
   33        0.002  -0.006   0.000  -0.004
   34        0.002  -0.005   0.000  -0.003
   35        0.001  -0.000   0.000   0.001
   36        0.003  -0.006   0.000  -0.003
   37        0.006   0.007   0.000   0.014
   38        0.001  -0.001   0.000   0.000
   39        0.002  -0.005   0.000  -0.003
   40        0.003  -0.002   0.000   0.001
   41        0.001  -0.001   0.000   0.000
   42        0.003  -0.006   0.000  -0.003
   43        0.005   0.004   0.000   0.009
   44        0.001  -0.000   0.000   0.001
   45        0.003  -0.006   0.000  -0.003
   46        0.003  -0.002   0.000   0.001
   47        0.003  -0.006   0.000  -0.003
   48        0.003  -0.003   0.000   0.000
   49        0.001  -0.001   0.000   0.000
   50        0.003  -0.002   0.000   0.001
   51        0.002  -0.006   0.000  -0.004
   52        0.007   0.023   0.000   0.030
   53        0.001  -0.001   0.000   0.000
   54        0.003  -0.003   0.000   0.000
   55        0.003  -0.002   0.000   0.001
--------------------------------------------------
tot          0.130   0.047   2.480   2.657
 
 BZINTS: Fermi energy:  6.934057;453.000000 electrons
         Band energy:***********;  BLOECHL correction: -0.329098

 total amount of memory used by VASP MPI-rank0   114849. kBytes
=======================================================================

   base      :      30000. kBytes
   nonlr-proj:      21847. kBytes
   fftplans  :       3667. kBytes
   grid      :      35562. kBytes
   one-center:       1710. kBytes
   wavefun   :      22063. kBytes
 
  
  
 General timing and accounting informations for this job:
 ========================================================
  
                  Total CPU time used (sec):     2309.563
                            User time (sec):     2300.007
                          System time (sec):        9.557
                         Elapsed time (sec):     2325.669
  
                   Maximum memory used (kb):      345920.
                   Average memory used (kb):           0.
  
                          Minor page faults:      2228766
                          Major page faults:          119
                 Voluntary context switches:        28608
