
     Program PWSCF v.5.1rc2 (svn rev. 11289) starts on  4Mar2018 at 23:15:15 

     This program is part of the open-source Quantum ESPRESSO suite
     for quantum simulation of materials; please cite
         "P. Giannozzi et al., J. Phys.:Condens. Matter 21 395502 (2009);
          URL http://www.quantum-espresso.org", 
     in publications or presentations arising from this work. More details at
     http://www.quantum-espresso.org/quote

     Parallel version (MPI), running on     8 processors
     R & G space division:  proc/nbgrp/npool/nimage =       8
     Reading input from pw.inp
     Message from routine read_cards :
     DEPRECATED: no units specified in CELL_PARAMETERS card

     Current dimensions of program PWSCF are:
     Max number of different atomic species (ntypx) = 10
     Max number of k-points (npk) =  40000
     Max angular momentum in pseudopotentials (lmaxx) =  3
     Presently no symmetry can be used with electric field


     **************************************************************************
     Initializing libbeef V0.1.1 with the BEEF-vdW functional.
     Citation: Wellendorff et al., PRB 85, 235149 (2012).
     **************************************************************************


     IMPORTANT: XC functional enforced from input :
     Exchange-correlation      = BEEF ( 1  4 27 13 2)
     Any further DFT definition will be discarded
     Please, verify this is what you really want

               file Cu.UPF: wavefunction(s)  3D renormalized

     Subspace diagonalization in iterative solution of the eigenvalue problem:
     a serial algorithm will be used

 
     Parallelization info
     --------------------
     sticks:   dense  smooth     PW     G-vecs:    dense   smooth      PW
     Min         648     261     72               142416    36039    5292
     Max         649     262     73               142425    36072    5303
     Sum        5191    2091    583              1139367   288467   42387
 


     bravais-lattice index     =            0
     lattice parameter (alat)  =       1.8897  a.u.
     unit-cell volume          =    9578.9423 (a.u.)^3
     number of atoms/cell      =           41
     number of atomic types    =            5
     number of electrons       =       410.00
     number of Kohn-Sham states=          215
     kinetic-energy cutoff     =      36.7493  Ry
     charge density cutoff     =     367.4932  Ry
     convergence threshold     =      7.3E-06
     mixing beta               =       0.1000
     number of iterations used =           10  local-TF  mixing
     Exchange-correlation      = BEEF ( 1  4 27 13 2)
     nstep                     =           50


     celldm(1)=   1.889726  celldm(2)=   0.000000  celldm(3)=   0.000000
     celldm(4)=   0.000000  celldm(5)=   0.000000  celldm(6)=   0.000000

     crystal axes: (cart. coord. in units of alat)
               a(1) = (   7.806467   0.000000   0.000000 )  
               a(2) = (   0.000000   6.373953   0.000000 )  
               a(3) = (   0.000000   0.000000  28.527096 )  

     reciprocal axes: (cart. coord. in units 2 pi/alat)
               b(1) = (  0.128099  0.000000  0.000000 )  
               b(2) = (  0.000000  0.156889  0.000000 )  
               b(3) = (  0.000000  0.000000  0.035054 )  


     PseudoPot. # 1 for Zn read from file:
     /nfs/slac/g/suncatfs/sw/external/esp-psp/v2/Zn.UPF
     MD5 check sum: 8a117cd81793830d6ad9bd6443d05479
     Pseudo is Ultrasoft, Zval = 12.0
     Generated by new atomic code, or converted to UPF format
     Using radial grid of  869 points,  6 beta functions with: 
                l(1) =   0
                l(2) =   0
                l(3) =   1
                l(4) =   1
                l(5) =   2
                l(6) =   2
     Q(r) pseudized with  8 coefficients,  rinner =    0.800   0.800   0.800
                                                       0.800   0.800

     PseudoPot. # 2 for Cu read from file:
     /nfs/slac/g/suncatfs/sw/external/esp-psp/v2/Cu.UPF
     MD5 check sum: 1265fa589247fc99ea3a830f142ff47f
     Pseudo is Ultrasoft + core correction, Zval = 11.0
     Generated using "atomic" code by A. Dal Corso  v.5.0.2 svn rev. 9415
     Using radial grid of 1199 points,  6 beta functions with: 
                l(1) =   0
                l(2) =   0
                l(3) =   1
                l(4) =   1
                l(5) =   2
                l(6) =   2
     Q(r) pseudized with 0 coefficients 


     PseudoPot. # 3 for  O read from file:
     /nfs/slac/g/suncatfs/sw/external/esp-psp/v2/O.UPF
     MD5 check sum: e057bbcf3229fb5d8c36c0c92f9568b4
     Pseudo is Ultrasoft + core correction, Zval =  6.0
     Generated using "atomic" code by A. Dal Corso  v.5.0.2 svn rev. 9415
     Using radial grid of 1095 points,  4 beta functions with: 
                l(1) =   0
                l(2) =   0
                l(3) =   1
                l(4) =   1
     Q(r) pseudized with 0 coefficients 


     PseudoPot. # 4 for  C read from file:
     /nfs/slac/g/suncatfs/sw/external/esp-psp/v2/C.UPF
     MD5 check sum: ab446d787031eba755f1d5ee46644bb0
     Pseudo is Ultrasoft + core correction, Zval =  4.0
     Generated using "atomic" code by A. Dal Corso  v.5.0.2 svn rev. 9415
     Using radial grid of 1073 points,  4 beta functions with: 
                l(1) =   0
                l(2) =   0
                l(3) =   1
                l(4) =   1
     Q(r) pseudized with 0 coefficients 


     PseudoPot. # 5 for  H read from file:
     /nfs/slac/g/suncatfs/sw/external/esp-psp/v2/H.UPF
     MD5 check sum: bd57da0722753ddfd9833a65b40bb853
     Pseudo is Ultrasoft, Zval =  1.0
     Generated using "atomic" code by A. Dal Corso  v.5.0.2 svn rev. 9415
     Using radial grid of  929 points,  2 beta functions with: 
                l(1) =   0
                l(2) =   0
     Q(r) pseudized with 0 coefficients 


     vdW kernel table read from file vdW_kernel_table
     MD5 check sum: 095c7af220d748ca6e76c0b4c6cfb241

     atomic species   valence    mass     pseudopotential
        Zn1           12.00    65.39000     Zn( 1.00)
        Cu1           11.00    63.54600     Cu( 1.00)
        O1             6.00    15.99940      O( 1.00)
        C1             4.00    12.01100      C( 1.00)
        H1             1.00     1.00794      H( 1.00)

     No symmetry found



   Cartesian axes

     site n.     atom                  positions (alat units)
         1           Zn1 tau(   1) = (   0.4879345   1.2223215  17.9605530  )
         2           Cu1 tau(   2) = (   3.3900850   1.1250033  17.7155266  )
         3           Cu1 tau(   3) = (   5.8771744   1.1031463  17.7653466  )
         4           Cu1 tau(   4) = (   1.9610139   5.3202995  17.1114347  )
         5           Cu1 tau(   5) = (   4.6016720   5.3573472  16.9591942  )
         6           Cu1 tau(   6) = (   7.1556526   5.3307384  16.9409236  )
         7           Cu1 tau(   7) = (   0.6816368   3.2601972  16.2800864  )
         8           Cu1 tau(   8) = (   3.2787158   3.2621720  16.2919951  )
         9           Cu1 tau(   9) = (   5.8615459   3.2485306  16.2983025  )
        10           Cu1 tau(  10) = (   1.9567452   1.1462728  15.5414419  )
        11           Cu1 tau(  11) = (   4.5900981   1.1513151  15.5429866  )
        12           Cu1 tau(  12) = (   7.1973408   1.1501643  15.5418741  )
        13           Cu1 tau(  13) = (   0.6854462   5.3710959  14.7929905  )
        14           Cu1 tau(  14) = (   3.2489674   5.3694814  14.7951659  )
        15           Cu1 tau(  15) = (   5.8695240   5.3699997  14.7569407  )
        16           Cu1 tau(  16) = (   1.9665487   3.2331944  14.0180721  )
        17           Cu1 tau(  17) = (   4.5631278   3.2368823  14.0161156  )
        18           Cu1 tau(  18) = (   7.1593497   3.2373918  14.0178182  )
        19           Cu1 tau(  19) = (   0.6505353   1.0963948  13.2895739  )
        20           Cu1 tau(  20) = (   3.2526883   1.0963948  13.2895739  )
        21           Cu1 tau(  21) = (   5.8548490   1.0963948  13.2895739  )
        22           Cu1 tau(  22) = (   1.9516079   5.3456991  12.5384024  )
        23           Cu1 tau(  23) = (   4.5537687   5.3456991  12.5384024  )
        24           Cu1 tau(  24) = (   7.1559216   5.3456991  12.5384024  )
        25           Cu1 tau(  25) = (   0.6505353   3.2210437  11.7872121  )
        26           Cu1 tau(  26) = (   3.2526883   3.2210437  11.7872121  )
        27           Cu1 tau(  27) = (   5.8548490   3.2210437  11.7872121  )
        28           Cu1 tau(  28) = (   1.9516079   1.0963948  11.0360406  )
        29           Cu1 tau(  29) = (   4.5537687   1.0963948  11.0360406  )
        30           Cu1 tau(  30) = (   7.1559216   1.0963948  11.0360406  )
        31           Cu1 tau(  31) = (   0.6505353   5.3456991  10.2848690  )
        32           Cu1 tau(  32) = (   3.2526883   5.3456991  10.2848690  )
        33           Cu1 tau(  33) = (   5.8548490   5.3456991  10.2848690  )
        34           Cu1 tau(  34) = (   1.9516079   3.2210437   9.5336788  )
        35           Cu1 tau(  35) = (   4.5537687   3.2210437   9.5336788  )
        36           Cu1 tau(  36) = (   7.1559216   3.2210437   9.5336788  )
        37           O1  tau(  37) = (   1.9996996   0.4379452  18.7147867  )
        38           C1  tau(  38) = (   5.9776645   1.1161519  19.8256700  )
        39           H1  tau(  39) = (   5.9967817   2.1077345  20.2718288  )
        40           H1  tau(  40) = (   5.0493458   0.6151319  20.1151486  )
        41           H1  tau(  41) = (   6.7867688   0.5157102  20.2347737  )

     number of k points=    10  Marzari-Vanderbilt smearing, width (Ry)=  0.0073
                       cart. coord. in units 2pi/alat
        k(    1) = (   0.0000000   0.0000000   0.0000000), wk =   0.1250000
        k(    2) = (   0.0000000   0.0392221   0.0000000), wk =   0.2500000
        k(    3) = (   0.0000000  -0.0784443   0.0000000), wk =   0.1250000
        k(    4) = (   0.0320247   0.0000000   0.0000000), wk =   0.2500000
        k(    5) = (   0.0320247   0.0392221   0.0000000), wk =   0.2500000
        k(    6) = (   0.0320247  -0.0784443   0.0000000), wk =   0.2500000
        k(    7) = (   0.0320247  -0.0392221   0.0000000), wk =   0.2500000
        k(    8) = (  -0.0640495   0.0000000   0.0000000), wk =   0.1250000
        k(    9) = (  -0.0640495   0.0392221   0.0000000), wk =   0.2500000
        k(   10) = (  -0.0640495  -0.0784443   0.0000000), wk =   0.1250000

     Dense  grid:  1139367 G-vectors     FFT dimensions: (  96,  75, 360)

     Smooth grid:   288467 G-vectors     FFT dimensions: (  60,  48, 216)

     Largest allocated arrays     est. size (Mb)     dimensions
        Kohn-Sham Wavefunctions        14.97 Mb     (    4562,  215)
        NL pseudopotentials            46.64 Mb     (    4562,  670)
        Each V/rho on FFT grid          4.94 Mb     (  324000)
        Each G-vector array             1.09 Mb     (  142423)
        G-vector shells                 0.43 Mb     (   56912)
     Largest temporary arrays     est. size (Mb)     dimensions
        Auxiliary wavefunctions        59.87 Mb     (    4562,  860)
        Each subspace H/S matrix       11.29 Mb     (     860,  860)
        Each <psi_i|beta_j> matrix      2.20 Mb     (     670,  215)
        Arrays for rho mixing          49.44 Mb     (  324000,   10)

     Check: negative/imaginary core charge=   -0.000012    0.000000

     Initial potential from superposition of free atoms
     Check: negative starting charge=   -0.003237

     starting charge  409.99168, renormalised to  410.00000

     negative rho (up, down):  3.237E-03 0.000E+00


     ************************************************************************
     *
     * You are using vdW-DF for exchange-correlation in this calculation.
     * Please cite the following three references that made this development
     * possible:
     *
     *   M. Dion, H. Rydberg, E. Schroder, D. C. Langreth, and
     *   B. I. Lundqvist, Phys. Rev. Lett. 92, 246401 (2004).
     *
     *   T. Thonhauser, V. R. Cooper, S. Li, A. Puzder, P. Hyldgaard, and
     *   D. C. Langreth, Phys. Rev. B 76, 125112 (2007).
     *
     *   G. Roman-Perez and J. M. Soler, Phys. Rev. Lett. 103, 096102 (2009).
     *
     *
     * If you are using vdW-DF2, please also cite:
     *
     *   K. Lee, E. D. Murray, L. Kong, B. I. Lundqvist, and
     *   D. C. Langreth, Phys. Rev. B 82, 081101(R) (2010).
     *
     *
     * If you are calculating the stress with vdW-DF, please also cite:
     *
     *   R. Sabatini, E. Kucukbenli, B. Kolb, T. Thonhauser, and
     *   S. de Gironcoli, J. Phys.: Condens. Matter 24, 424209 (2012).
     *
     ************************************************************************

     Carrying out vdW-DF run using the following parameters:

     Nqs =      20    Nr_points =    1024   r_max =   100.000
     q_mesh =
               0.00001000     0.04494208     0.09755937     0.15916263
               0.23128650     0.31572767     0.41458969     0.53033537
               0.66584808     0.82450364     1.01025438     1.22772762
               1.48234092     1.78043706     2.12944203     2.53805004
               3.01644009     3.57652955     4.23227104     5.00000000

     Gradients computed in reciprocal space

     ************************************************************************


 
     Adding external electric field

     Computed dipole along edir(3) : 
        Dipole               -0.0028 Ry au,         -0.0072 Debye
        Dipole field         -0.0000 Ry au
 
        Potential amp.        0.0004 Ry
        Total length         52.5607 bohr
 
     Starting wfc are  332 randomized atomic wfcs

     total cpu time spent up to now is      102.0 secs

     per-process dynamical memory:   353.7 Mb

     Self-consistent Calculation

     iteration #  1     ecut=    36.75 Ry     beta=0.10
     Davidson diagonalization with overlap
     ethr =  1.00E-02,  avg # of iterations =  3.0

     Threshold (ethr) on eigenvalues was too large:
     Diagonalizing with lowered threshold

     Davidson diagonalization with overlap
     ethr =  6.68E-04,  avg # of iterations =  3.0

     negative rho (up, down):  1.672E-03 0.000E+00
 
     Adding external electric field

     Computed dipole along edir(3) : 
        Dipole               -0.0140 Ry au,         -0.0356 Debye
        Dipole field         -0.0000 Ry au
 
        Potential amp.        0.0019 Ry
        Total length         52.5607 bohr
 

     total cpu time spent up to now is      411.8 secs

     total energy              =   -4330.51659098 Ry
     Harris-Foulkes estimate   =   -4330.63408136 Ry
     estimated scf accuracy    <       2.81323224 Ry

     iteration #  2     ecut=    36.75 Ry     beta=0.10
     Davidson diagonalization with overlap
     ethr =  6.86E-04,  avg # of iterations =  1.0

     negative rho (up, down):  2.105E-04 0.000E+00
 
     Adding external electric field

     Computed dipole along edir(3) : 
        Dipole               -0.1243 Ry au,         -0.3159 Debye
        Dipole field         -0.0002 Ry au
 
        Potential amp.        0.0171 Ry
        Total length         52.5607 bohr
 

     total cpu time spent up to now is      566.5 secs

     total energy              =   -4329.71628596 Ry
     Harris-Foulkes estimate   =   -4330.54197311 Ry
     estimated scf accuracy    <       2.44248068 Ry

     iteration #  3     ecut=    36.75 Ry     beta=0.10
     Davidson diagonalization with overlap
     ethr =  5.96E-04,  avg # of iterations =  4.0

     negative rho (up, down):  1.871E-04 0.000E+00
 
     Adding external electric field

     Computed dipole along edir(3) : 
        Dipole               -0.0971 Ry au,         -0.2469 Debye
        Dipole field         -0.0001 Ry au
 
        Potential amp.        0.0134 Ry
        Total length         52.5607 bohr
 

     total cpu time spent up to now is      747.8 secs

     total energy              =   -4330.07538031 Ry
     Harris-Foulkes estimate   =   -4330.21902667 Ry
     estimated scf accuracy    <       2.20386445 Ry

     iteration #  4     ecut=    36.75 Ry     beta=0.10
     Davidson diagonalization with overlap
     ethr =  5.38E-04,  avg # of iterations =  2.0

     negative rho (up, down):  1.088E-04 0.000E+00
 
     Adding external electric field

     Computed dipole along edir(3) : 
        Dipole               -0.0975 Ry au,         -0.2478 Debye
        Dipole field         -0.0001 Ry au
 
        Potential amp.        0.0134 Ry
        Total length         52.5607 bohr
 

     total cpu time spent up to now is      911.3 secs

     total energy              =   -4330.12480806 Ry
     Harris-Foulkes estimate   =   -4330.14766076 Ry
     estimated scf accuracy    <       0.55237861 Ry

     iteration #  5     ecut=    36.75 Ry     beta=0.10
     Davidson diagonalization with overlap
     ethr =  1.35E-04,  avg # of iterations =  3.9

     negative rho (up, down):  2.881E-05 0.000E+00
 
     Adding external electric field

     Computed dipole along edir(3) : 
        Dipole               -0.2322 Ry au,         -0.5902 Debye
        Dipole field         -0.0003 Ry au
 
        Potential amp.        0.0320 Ry
        Total length         52.5607 bohr
 

     total cpu time spent up to now is     1092.9 secs

     total energy              =   -4329.99493152 Ry
     Harris-Foulkes estimate   =   -4330.18847925 Ry
     estimated scf accuracy    <       0.62373048 Ry

     iteration #  6     ecut=    36.75 Ry     beta=0.10
     Davidson diagonalization with overlap
     ethr =  1.35E-04,  avg # of iterations =  3.7

     negative rho (up, down):  2.283E-05 0.000E+00
 
     Adding external electric field

     Computed dipole along edir(3) : 
        Dipole               -0.2375 Ry au,         -0.6036 Debye
        Dipole field         -0.0003 Ry au
 
        Potential amp.        0.0327 Ry
        Total length         52.5607 bohr
 

     total cpu time spent up to now is     1268.3 secs

     total energy              =   -4330.08168388 Ry
     Harris-Foulkes estimate   =   -4330.08203403 Ry
     estimated scf accuracy    <       0.11207276 Ry

     iteration #  7     ecut=    36.75 Ry     beta=0.10
     Davidson diagonalization with overlap
     ethr =  2.73E-05,  avg # of iterations =  2.8

     negative rho (up, down):  1.312E-05 0.000E+00
 
     Adding external electric field

     Computed dipole along edir(3) : 
        Dipole               -0.2501 Ry au,         -0.6356 Debye
        Dipole field         -0.0003 Ry au
 
        Potential amp.        0.0345 Ry
        Total length         52.5607 bohr
 

     total cpu time spent up to now is     1434.1 secs

     total energy              =   -4330.07642299 Ry
     Harris-Foulkes estimate   =   -4330.08481661 Ry
     estimated scf accuracy    <       0.11569202 Ry

     iteration #  8     ecut=    36.75 Ry     beta=0.10
     Davidson diagonalization with overlap
     ethr =  2.73E-05,  avg # of iterations =  2.1

     negative rho (up, down):  6.343E-06 0.000E+00
 
     Adding external electric field

     Computed dipole along edir(3) : 
        Dipole               -0.3161 Ry au,         -0.8034 Debye
        Dipole field         -0.0004 Ry au
 
        Potential amp.        0.0436 Ry
        Total length         52.5607 bohr
 

     total cpu time spent up to now is     1602.5 secs

     total energy              =   -4330.06621395 Ry
     Harris-Foulkes estimate   =   -4330.07807552 Ry
     estimated scf accuracy    <       0.06799554 Ry

     iteration #  9     ecut=    36.75 Ry     beta=0.10
     Davidson diagonalization with overlap
     ethr =  1.66E-05,  avg # of iterations =  5.3

     negative rho (up, down):  4.845E-06 0.000E+00
 
     Adding external electric field

     Computed dipole along edir(3) : 
        Dipole               -0.3257 Ry au,         -0.8278 Debye
        Dipole field         -0.0004 Ry au
 
        Potential amp.        0.0449 Ry
        Total length         52.5607 bohr
 

     total cpu time spent up to now is     1805.9 secs

     total energy              =   -4330.07254211 Ry
     Harris-Foulkes estimate   =   -4330.07414190 Ry
     estimated scf accuracy    <       0.03630335 Ry

     iteration # 10     ecut=    36.75 Ry     beta=0.10
     Davidson diagonalization with overlap
     ethr =  8.85E-06,  avg # of iterations =  3.7

     negative rho (up, down):  3.494E-06 0.000E+00
 
     Adding external electric field

     Computed dipole along edir(3) : 
        Dipole               -0.3984 Ry au,         -1.0127 Debye
        Dipole field         -0.0005 Ry au
 
        Potential amp.        0.0549 Ry
        Total length         52.5607 bohr
 

     total cpu time spent up to now is     2000.6 secs

     total energy              =   -4330.07139384 Ry
     Harris-Foulkes estimate   =   -4330.07300375 Ry
     estimated scf accuracy    <       0.02718591 Ry

     iteration # 11     ecut=    36.75 Ry     beta=0.10
     Davidson diagonalization with overlap
     ethr =  6.63E-06,  avg # of iterations =  3.6

     negative rho (up, down):  4.439E-06 0.000E+00
 
     Adding external electric field

     Computed dipole along edir(3) : 
        Dipole               -0.4514 Ry au,         -1.1474 Debye
        Dipole field         -0.0006 Ry au
 
        Potential amp.        0.0623 Ry
        Total length         52.5607 bohr
 

     total cpu time spent up to now is     2196.0 secs

     total energy              =   -4330.07375568 Ry
     Harris-Foulkes estimate   =   -4330.07241632 Ry
     estimated scf accuracy    <       0.01965168 Ry

     iteration # 12     ecut=    36.75 Ry     beta=0.10
     Davidson diagonalization with overlap
     ethr =  4.79E-06,  avg # of iterations =  3.5

     negative rho (up, down):  3.849E-06 0.000E+00
 
     Adding external electric field

     Computed dipole along edir(3) : 
        Dipole               -0.4746 Ry au,         -1.2063 Debye
        Dipole field         -0.0006 Ry au
 
        Potential amp.        0.0654 Ry
        Total length         52.5607 bohr
 

     total cpu time spent up to now is     2391.4 secs

     total energy              =   -4330.07429237 Ry
     Harris-Foulkes estimate   =   -4330.07487682 Ry
     estimated scf accuracy    <       0.02855883 Ry

     iteration # 13     ecut=    36.75 Ry     beta=0.10
     Davidson diagonalization with overlap
     ethr =  4.79E-06,  avg # of iterations =  1.6

     negative rho (up, down):  3.403E-05 0.000E+00
 
     Adding external electric field

     Computed dipole along edir(3) : 
        Dipole               -0.5512 Ry au,         -1.4010 Debye
        Dipole field         -0.0007 Ry au
 
        Potential amp.        0.0760 Ry
        Total length         52.5607 bohr
 

     total cpu time spent up to now is     2560.4 secs

     total energy              =   -4330.07144846 Ry
     Harris-Foulkes estimate   =   -4330.07450326 Ry
     estimated scf accuracy    <       0.03370730 Ry

     iteration # 14     ecut=    36.75 Ry     beta=0.10
     Davidson diagonalization with overlap
     ethr =  4.79E-06,  avg # of iterations =  3.0

     negative rho (up, down):  3.657E-04 0.000E+00
 
     Adding external electric field

     Computed dipole along edir(3) : 
        Dipole               -0.6288 Ry au,         -1.5984 Debye
        Dipole field         -0.0008 Ry au
 
        Potential amp.        0.0867 Ry
        Total length         52.5607 bohr
 

     total cpu time spent up to now is     2732.3 secs

     total energy              =   -4330.07273536 Ry
     Harris-Foulkes estimate   =   -4330.07202725 Ry
     estimated scf accuracy    <       0.02584510 Ry

     iteration # 15     ecut=    36.75 Ry     beta=0.10
     Davidson diagonalization with overlap
     ethr =  4.79E-06,  avg # of iterations =  1.5

     negative rho (up, down):  5.713E-04 0.000E+00
 
     Adding external electric field

     Computed dipole along edir(3) : 
        Dipole               -0.6767 Ry au,         -1.7200 Debye
        Dipole field         -0.0009 Ry au
 
        Potential amp.        0.0933 Ry
        Total length         52.5607 bohr
 

     total cpu time spent up to now is     2894.8 secs

     total energy              =   -4330.07454135 Ry
     Harris-Foulkes estimate   =   -4330.07330494 Ry
     estimated scf accuracy    <       0.02579753 Ry

     iteration # 16     ecut=    36.75 Ry     beta=0.10
     Davidson diagonalization with overlap
     ethr =  4.79E-06,  avg # of iterations =  2.8

     negative rho (up, down):  1.040E-02 0.000E+00
 
     Adding external electric field

     Computed dipole along edir(3) : 
        Dipole               -0.7967 Ry au,         -2.0249 Debye
        Dipole field         -0.0010 Ry au
 
        Potential amp.        0.1099 Ry
        Total length         52.5607 bohr
 

     total cpu time spent up to now is     3063.9 secs

     total energy              =   -4330.06796085 Ry
     Harris-Foulkes estimate   =   -4330.07475220 Ry
     estimated scf accuracy    <       0.03180348 Ry

     iteration # 17     ecut=    36.75 Ry     beta=0.10
     Davidson diagonalization with overlap
     ethr =  4.79E-06,  avg # of iterations =  3.9

     negative rho (up, down):  9.264E-03 0.000E+00
 
     Adding external electric field

     Computed dipole along edir(3) : 
        Dipole               -0.7919 Ry au,         -2.0129 Debye
        Dipole field         -0.0010 Ry au
 
        Potential amp.        0.1092 Ry
        Total length         52.5607 bohr
 

     total cpu time spent up to now is     3242.1 secs

     total energy              =   -4330.07033263 Ry
     Harris-Foulkes estimate   =   -4330.07037705 Ry
     estimated scf accuracy    <       0.01030260 Ry

     iteration # 18     ecut=    36.75 Ry     beta=0.10
     Davidson diagonalization with overlap
     ethr =  2.51E-06,  avg # of iterations =  2.0

     negative rho (up, down):  2.286E-03 0.000E+00
 
     Adding external electric field

     Computed dipole along edir(3) : 
        Dipole               -0.7365 Ry au,         -1.8721 Debye
        Dipole field         -0.0010 Ry au
 
        Potential amp.        0.1016 Ry
        Total length         52.5607 bohr
 

     total cpu time spent up to now is     3410.8 secs

     total energy              =   -4330.06925984 Ry
     Harris-Foulkes estimate   =   -4330.07076036 Ry
     estimated scf accuracy    <       0.00896469 Ry

     iteration # 19     ecut=    36.75 Ry     beta=0.10
     Davidson diagonalization with overlap
     ethr =  2.19E-06,  avg # of iterations =  5.4

     negative rho (up, down):  6.311E-03 0.000E+00
 
     Adding external electric field

     Computed dipole along edir(3) : 
        Dipole               -0.7650 Ry au,         -1.9445 Debye
        Dipole field         -0.0010 Ry au
 
        Potential amp.        0.1055 Ry
        Total length         52.5607 bohr
 

     total cpu time spent up to now is     3595.2 secs

     total energy              =   -4330.06949595 Ry
     Harris-Foulkes estimate   =   -4330.06977232 Ry
     estimated scf accuracy    <       0.00579256 Ry

     iteration # 20     ecut=    36.75 Ry     beta=0.10
     Davidson diagonalization with overlap
     ethr =  1.41E-06,  avg # of iterations =  2.1

     negative rho (up, down):  3.845E-03 0.000E+00
 
     Adding external electric field

     Computed dipole along edir(3) : 
        Dipole               -0.7511 Ry au,         -1.9091 Debye
        Dipole field         -0.0010 Ry au
 
        Potential amp.        0.1036 Ry
        Total length         52.5607 bohr
 

     total cpu time spent up to now is     3761.0 secs

     total energy              =   -4330.06930209 Ry
     Harris-Foulkes estimate   =   -4330.06965866 Ry
     estimated scf accuracy    <       0.00539841 Ry

     iteration # 21     ecut=    36.75 Ry     beta=0.10
     Davidson diagonalization with overlap
     ethr =  1.32E-06,  avg # of iterations =  2.2

     negative rho (up, down):  1.912E-03 0.000E+00
 
     Adding external electric field

     Computed dipole along edir(3) : 
        Dipole               -0.7250 Ry au,         -1.8429 Debye
        Dipole field         -0.0010 Ry au
 
        Potential amp.        0.1000 Ry
        Total length         52.5607 bohr
 

     total cpu time spent up to now is     3930.5 secs

     total energy              =   -4330.06929488 Ry
     Harris-Foulkes estimate   =   -4330.06944878 Ry
     estimated scf accuracy    <       0.00400081 Ry

     iteration # 22     ecut=    36.75 Ry     beta=0.10
     Davidson diagonalization with overlap
     ethr =  9.76E-07,  avg # of iterations =  1.2

     negative rho (up, down):  1.769E-04 0.000E+00
 
     Adding external electric field

     Computed dipole along edir(3) : 
        Dipole               -0.6750 Ry au,         -1.7156 Debye
        Dipole field         -0.0009 Ry au
 
        Potential amp.        0.0931 Ry
        Total length         52.5607 bohr
 

     total cpu time spent up to now is     4096.6 secs

     total energy              =   -4330.06911663 Ry
     Harris-Foulkes estimate   =   -4330.06943630 Ry
     estimated scf accuracy    <       0.00383969 Ry

     iteration # 23     ecut=    36.75 Ry     beta=0.10
     Davidson diagonalization with overlap
     ethr =  9.37E-07,  avg # of iterations =  3.0

     negative rho (up, down):  3.094E-05 0.000E+00
 
     Adding external electric field

     Computed dipole along edir(3) : 
        Dipole               -0.6288 Ry au,         -1.5983 Debye
        Dipole field         -0.0008 Ry au
 
        Potential amp.        0.0867 Ry
        Total length         52.5607 bohr
 

     total cpu time spent up to now is     4267.8 secs

     total energy              =   -4330.06918297 Ry
     Harris-Foulkes estimate   =   -4330.06931810 Ry
     estimated scf accuracy    <       0.00270189 Ry

     iteration # 24     ecut=    36.75 Ry     beta=0.10
     Davidson diagonalization with overlap
     ethr =  6.59E-07,  avg # of iterations =  1.3

     negative rho (up, down):  3.395E-03 0.000E+00
 
     Adding external electric field

     Computed dipole along edir(3) : 
        Dipole               -0.5981 Ry au,         -1.5202 Debye
        Dipole field         -0.0008 Ry au
 
        Potential amp.        0.0825 Ry
        Total length         52.5607 bohr
 

     total cpu time spent up to now is     4431.3 secs

     total energy              =   -4330.06846338 Ry
     Harris-Foulkes estimate   =   -4330.06926937 Ry
     estimated scf accuracy    <       0.00233730 Ry

     iteration # 25     ecut=    36.75 Ry     beta=0.10
     Davidson diagonalization with overlap
     ethr =  5.70E-07,  avg # of iterations =  3.9

     negative rho (up, down):  4.164E-03 0.000E+00
 
     Adding external electric field

     Computed dipole along edir(3) : 
        Dipole               -0.5862 Ry au,         -1.4899 Debye
        Dipole field         -0.0008 Ry au
 
        Potential amp.        0.0808 Ry
        Total length         52.5607 bohr
 

     total cpu time spent up to now is     4611.0 secs

     total energy              =   -4330.06851464 Ry
     Harris-Foulkes estimate   =   -4330.06869415 Ry
     estimated scf accuracy    <       0.00172638 Ry

     iteration # 26     ecut=    36.75 Ry     beta=0.10
     Davidson diagonalization with overlap
     ethr =  4.21E-07,  avg # of iterations =  3.4

     negative rho (up, down):  3.265E-03 0.000E+00
 
     Adding external electric field

     Computed dipole along edir(3) : 
        Dipole               -0.5509 Ry au,         -1.4003 Debye
        Dipole field         -0.0007 Ry au
 
        Potential amp.        0.0760 Ry
        Total length         52.5607 bohr
 

     total cpu time spent up to now is     4783.9 secs

     total energy              =   -4330.06838924 Ry
     Harris-Foulkes estimate   =   -4330.06865198 Ry
     estimated scf accuracy    <       0.00151548 Ry

     iteration # 27     ecut=    36.75 Ry     beta=0.10
     Davidson diagonalization with overlap
     ethr =  3.70E-07,  avg # of iterations =  3.5

     negative rho (up, down):  1.960E-03 0.000E+00
 
     Adding external electric field

     Computed dipole along edir(3) : 
        Dipole               -0.4860 Ry au,         -1.2353 Debye
        Dipole field         -0.0006 Ry au
 
        Potential amp.        0.0670 Ry
        Total length         52.5607 bohr
 

     total cpu time spent up to now is     4959.9 secs

     total energy              =   -4330.06839918 Ry
     Harris-Foulkes estimate   =   -4330.06857977 Ry
     estimated scf accuracy    <       0.00121578 Ry

     iteration # 28     ecut=    36.75 Ry     beta=0.10
     Davidson diagonalization with overlap
     ethr =  2.97E-07,  avg # of iterations =  2.1

     negative rho (up, down):  1.480E-03 0.000E+00
 
     Adding external electric field

     Computed dipole along edir(3) : 
        Dipole               -0.4229 Ry au,         -1.0750 Debye
        Dipole field         -0.0006 Ry au
 
        Potential amp.        0.0583 Ry
        Total length         52.5607 bohr
 

     total cpu time spent up to now is     5122.1 secs

     total energy              =   -4330.06832771 Ry
     Harris-Foulkes estimate   =   -4330.06853158 Ry
     estimated scf accuracy    <       0.00078185 Ry

     iteration # 29     ecut=    36.75 Ry     beta=0.10
     Davidson diagonalization with overlap
     ethr =  1.91E-07,  avg # of iterations =  4.0

     negative rho (up, down):  3.086E-03 0.000E+00
 
     Adding external electric field

     Computed dipole along edir(3) : 
        Dipole               -0.4131 Ry au,         -1.0499 Debye
        Dipole field         -0.0005 Ry au
 
        Potential amp.        0.0570 Ry
        Total length         52.5607 bohr
 

     total cpu time spent up to now is     5298.4 secs

     total energy              =   -4330.06827155 Ry
     Harris-Foulkes estimate   =   -4330.06839558 Ry
     estimated scf accuracy    <       0.00052294 Ry

     iteration # 30     ecut=    36.75 Ry     beta=0.10
     Davidson diagonalization with overlap
     ethr =  1.28E-07,  avg # of iterations =  3.9

     negative rho (up, down):  3.527E-03 0.000E+00
 
     Adding external electric field

     Computed dipole along edir(3) : 
        Dipole               -0.3620 Ry au,         -0.9200 Debye
        Dipole field         -0.0005 Ry au
 
        Potential amp.        0.0499 Ry
        Total length         52.5607 bohr
 

     total cpu time spent up to now is     5476.3 secs

     total energy              =   -4330.06805988 Ry
     Harris-Foulkes estimate   =   -4330.06838961 Ry
     estimated scf accuracy    <       0.00076043 Ry

     iteration # 31     ecut=    36.75 Ry     beta=0.10
     Davidson diagonalization with overlap
     ethr =  1.28E-07,  avg # of iterations =  4.0

     negative rho (up, down):  2.765E-03 0.000E+00
 
     Adding external electric field

     Computed dipole along edir(3) : 
        Dipole               -0.3547 Ry au,         -0.9016 Debye
        Dipole field         -0.0005 Ry au
 
        Potential amp.        0.0489 Ry
        Total length         52.5607 bohr
 

     total cpu time spent up to now is     5669.1 secs

     total energy              =   -4330.06817937 Ry
     Harris-Foulkes estimate   =   -4330.06821639 Ry
     estimated scf accuracy    <       0.00021030 Ry

     iteration # 32     ecut=    36.75 Ry     beta=0.10
     Davidson diagonalization with overlap
     ethr =  5.13E-08,  avg # of iterations =  2.4

     negative rho (up, down):  2.418E-03 0.000E+00
 
     Adding external electric field

     Computed dipole along edir(3) : 
        Dipole               -0.3478 Ry au,         -0.8840 Debye
        Dipole field         -0.0005 Ry au
 
        Potential amp.        0.0480 Ry
        Total length         52.5607 bohr
 

     total cpu time spent up to now is     5835.7 secs

     total energy              =   -4330.06818434 Ry
     Harris-Foulkes estimate   =   -4330.06819838 Ry
     estimated scf accuracy    <       0.00009517 Ry

     iteration # 33     ecut=    36.75 Ry     beta=0.10
     Davidson diagonalization with overlap
     ethr =  2.32E-08,  avg # of iterations =  4.0

     negative rho (up, down):  2.313E-03 0.000E+00
 
     Adding external electric field

     Computed dipole along edir(3) : 
        Dipole               -0.3282 Ry au,         -0.8342 Debye
        Dipole field         -0.0004 Ry au
 
        Potential amp.        0.0453 Ry
        Total length         52.5607 bohr
 

     total cpu time spent up to now is     6007.3 secs

     total energy              =   -4330.06817626 Ry
     Harris-Foulkes estimate   =   -4330.06820598 Ry
     estimated scf accuracy    <       0.00007492 Ry

     iteration # 34     ecut=    36.75 Ry     beta=0.10
     Davidson diagonalization with overlap
     ethr =  1.83E-08,  avg # of iterations =  3.1

     negative rho (up, down):  2.692E-03 0.000E+00
 
     Adding external electric field

     Computed dipole along edir(3) : 
        Dipole               -0.3290 Ry au,         -0.8362 Debye
        Dipole field         -0.0004 Ry au
 
        Potential amp.        0.0454 Ry
        Total length         52.5607 bohr
 

     total cpu time spent up to now is     6175.6 secs

     total energy              =   -4330.06816706 Ry
     Harris-Foulkes estimate   =   -4330.06817885 Ry
     estimated scf accuracy    <       0.00004710 Ry

     iteration # 35     ecut=    36.75 Ry     beta=0.10
     Davidson diagonalization with overlap
     ethr =  1.15E-08,  avg # of iterations =  3.2

     negative rho (up, down):  2.838E-03 0.000E+00
 
     Adding external electric field

     Computed dipole along edir(3) : 
        Dipole               -0.3375 Ry au,         -0.8578 Debye
        Dipole field         -0.0004 Ry au
 
        Potential amp.        0.0465 Ry
        Total length         52.5607 bohr
 

     total cpu time spent up to now is     6359.1 secs

     total energy              =   -4330.06816548 Ry
     Harris-Foulkes estimate   =   -4330.06816480 Ry
     estimated scf accuracy    <       0.00002951 Ry

     iteration # 36     ecut=    36.75 Ry     beta=0.10
     Davidson diagonalization with overlap
     ethr =  7.20E-09,  avg # of iterations =  2.8

     negative rho (up, down):  3.020E-03 0.000E+00
 
     Adding external electric field

     Computed dipole along edir(3) : 
        Dipole               -0.3377 Ry au,         -0.8583 Debye
        Dipole field         -0.0004 Ry au
 
        Potential amp.        0.0466 Ry
        Total length         52.5607 bohr
 

     total cpu time spent up to now is     6533.5 secs

     total energy              =   -4330.06816452 Ry
     Harris-Foulkes estimate   =   -4330.06816702 Ry
     estimated scf accuracy    <       0.00001312 Ry

     iteration # 37     ecut=    36.75 Ry     beta=0.10
     Davidson diagonalization with overlap
     ethr =  3.20E-09,  avg # of iterations =  3.6

     negative rho (up, down):  3.267E-03 0.000E+00
 
     Adding external electric field

     Computed dipole along edir(3) : 
        Dipole               -0.3350 Ry au,         -0.8515 Debye
        Dipole field         -0.0004 Ry au
 
        Potential amp.        0.0462 Ry
        Total length         52.5607 bohr
 

     total cpu time spent up to now is     6721.8 secs

     total energy              =   -4330.06816241 Ry
     Harris-Foulkes estimate   =   -4330.06816855 Ry
     estimated scf accuracy    <       0.00001178 Ry

     iteration # 38     ecut=    36.75 Ry     beta=0.10
     Davidson diagonalization with overlap
     ethr =  2.87E-09,  avg # of iterations =  3.8

     negative rho (up, down):  3.698E-03 0.000E+00
 
     Adding external electric field

     Computed dipole along edir(3) : 
        Dipole               -0.3393 Ry au,         -0.8623 Debye
        Dipole field         -0.0004 Ry au
 
        Potential amp.        0.0468 Ry
        Total length         52.5607 bohr
 

     total cpu time spent up to now is     6904.3 secs

     End of self-consistent calculation

          k = 0.0000 0.0000 0.0000 ( 36131 PWs)   bands (ev):

   -17.3531 -11.4335  -8.1378  -6.9628  -6.6650  -6.6037  -6.5559  -6.5113
    -6.4836  -5.8117  -5.7641  -5.4300  -5.0376  -4.9726  -4.9459  -4.8121
    -4.6044  -4.5203  -4.3042  -4.2080  -4.1297  -4.0878  -4.0344  -4.0015
    -3.9936  -3.9713  -3.9494  -3.8867  -3.7696  -3.7576  -3.7338  -3.7138
    -3.6905  -3.6843  -3.6648  -3.6404  -3.5798  -3.5732  -3.5632  -3.5614
    -3.5346  -3.5298  -3.5081  -3.4250  -3.4123  -3.3820  -3.3557  -3.3114
    -3.2633  -3.2271  -3.2096  -3.1978  -3.1762  -3.1312  -3.0841  -3.0460
    -2.9960  -2.9511  -2.9354  -2.9185  -2.9109  -2.9002  -2.8921  -2.8743
    -2.8682  -2.8516  -2.8400  -2.8211  -2.7968  -2.7893  -2.7730  -2.7617
    -2.7388  -2.7330  -2.7037  -2.6821  -2.6712  -2.6485  -2.6269  -2.6102
    -2.5918  -2.5693  -2.5523  -2.5507  -2.5398  -2.4952  -2.4856  -2.4720
    -2.4570  -2.4498  -2.4426  -2.4291  -2.4249  -2.4151  -2.3910  -2.3723
    -2.3660  -2.3531  -2.3360  -2.3284  -2.3139  -2.3033  -2.2909  -2.2617
    -2.2542  -2.2439  -2.2295  -2.2178  -2.2028  -2.1997  -2.1851  -2.1631
    -2.1597  -2.1520  -2.1342  -2.1258  -2.1139  -2.0837  -2.0765  -2.0507
    -2.0400  -2.0096  -2.0052  -1.9968  -1.9708  -1.9598  -1.9335  -1.9315
    -1.9194  -1.9061  -1.8951  -1.8742  -1.8359  -1.8336  -1.8163  -1.8057
    -1.7892  -1.7591  -1.7496  -1.7431  -1.7394  -1.7044  -1.6901  -1.6668
    -1.6380  -1.6263  -1.6128  -1.5990  -1.5918  -1.5823  -1.5723  -1.5675
    -1.5488  -1.5345  -1.5291  -1.5206  -1.5134  -1.5117  -1.4963  -1.4824
    -1.4744  -1.4717  -1.4641  -1.4439  -1.4286  -1.4266  -1.4224  -1.4143
    -1.4031  -1.3825  -1.3688  -1.3595  -1.3587  -1.3395  -1.3240  -1.3124
    -1.3044  -1.2991  -1.2929  -1.2806  -1.2682  -1.2543  -1.2524  -1.2485
    -1.2231  -1.2154  -1.2124  -1.2082  -1.2054  -1.1892  -1.1515  -1.1152
    -1.0599  -1.0388  -1.0271  -0.8610  -0.7336  -0.6911  -0.5869  -0.3453
    -0.0703   0.0509   0.3203   0.3982   0.4081   0.4205   0.4802   0.6886
     1.0350   1.0741   1.1326   1.1611   1.2142   1.3237   1.7957

          k = 0.0000 0.0392 0.0000 ( 36033 PWs)   bands (ev):

   -17.3530 -11.4326  -7.8998  -6.7697  -6.6597  -6.5978  -6.5559  -6.5170
    -6.4785  -6.0909  -5.6382  -5.5931  -5.3630  -4.9963  -4.9518  -4.7141
    -4.5808  -4.5314  -4.4726  -4.4559  -4.3385  -4.2905  -4.2332  -4.1645
    -4.0970  -3.9787  -3.8950  -3.8703  -3.7846  -3.7602  -3.7538  -3.7363
    -3.7061  -3.6531  -3.6029  -3.5737  -3.5299  -3.5149  -3.5101  -3.4923
    -3.4444  -3.4066  -3.3979  -3.3503  -3.3285  -3.3197  -3.3129  -3.2936
    -3.2867  -3.2412  -3.2206  -3.1957  -3.1455  -3.1371  -3.1139  -3.0944
    -3.0737  -3.0504  -3.0379  -3.0092  -2.9561  -2.9229  -2.8992  -2.8924
    -2.8660  -2.8329  -2.8139  -2.8023  -2.7541  -2.7450  -2.7255  -2.7087
    -2.6983  -2.6749  -2.6619  -2.6467  -2.6404  -2.6165  -2.5973  -2.5815
    -2.5672  -2.5582  -2.5459  -2.5178  -2.5051  -2.4913  -2.4693  -2.4650
    -2.4465  -2.4430  -2.4170  -2.4079  -2.4057  -2.3995  -2.3899  -2.3839
    -2.3742  -2.3714  -2.3569  -2.3409  -2.3327  -2.3211  -2.3159  -2.2872
    -2.2710  -2.2633  -2.2436  -2.2268  -2.1914  -2.1823  -2.1614  -2.1479
    -2.1328  -2.1129  -2.1056  -2.0864  -2.0600  -2.0407  -2.0270  -2.0148
    -2.0058  -1.9899  -1.9795  -1.9558  -1.9444  -1.9328  -1.9068  -1.8969
    -1.8827  -1.8713  -1.8565  -1.8399  -1.8324  -1.8119  -1.8051  -1.7929
    -1.7839  -1.7633  -1.7458  -1.7385  -1.7151  -1.7098  -1.6844  -1.6795
    -1.6567  -1.6448  -1.6212  -1.6132  -1.5918  -1.5865  -1.5747  -1.5640
    -1.5502  -1.5342  -1.5177  -1.5103  -1.4983  -1.4856  -1.4762  -1.4690
    -1.4600  -1.4487  -1.4461  -1.4352  -1.4300  -1.4234  -1.4122  -1.4010
    -1.3957  -1.3874  -1.3696  -1.3642  -1.3537  -1.3478  -1.3373  -1.3201
    -1.3147  -1.3070  -1.2933  -1.2877  -1.2821  -1.2667  -1.2573  -1.2448
    -1.2338  -1.2134  -1.2053  -1.1977  -1.1687  -1.1532  -1.1399  -1.1311
    -1.1237  -1.0581  -1.0454  -1.0057  -0.8905  -0.7843  -0.7093  -0.6039
    -0.4387  -0.3755  -0.1894  -0.1353  -0.0684   0.0621   0.7353   0.8467
     0.9157   1.1515   1.4275   1.5836   1.8953   2.2358   2.2465

          k = 0.0000-0.0784 0.0000 ( 36028 PWs)   bands (ev):

   -17.3529 -11.4317  -7.2198  -7.2017  -6.6646  -6.6073  -6.5567  -6.5199
    -6.4871  -6.0740  -6.0629  -5.2049  -5.1373  -5.1184  -5.0864  -4.8715
    -4.7864  -4.7112  -4.5392  -4.4662  -4.4533  -4.4402  -4.3946  -4.2705
    -4.1909  -4.0036  -3.8738  -3.8504  -3.8046  -3.7571  -3.6816  -3.6397
    -3.5990  -3.5602  -3.5439  -3.5379  -3.5222  -3.5003  -3.4530  -3.4272
    -3.4098  -3.3974  -3.3934  -3.3880  -3.3599  -3.3582  -3.3243  -3.3230
    -3.3089  -3.2979  -3.2701  -3.2378  -3.1986  -3.1365  -3.1194  -3.0652
    -3.0574  -3.0438  -3.0201  -2.9651  -2.9615  -2.9275  -2.8948  -2.8755
    -2.8391  -2.8246  -2.8089  -2.7588  -2.7423  -2.7321  -2.7183  -2.7087
    -2.6718  -2.6601  -2.6401  -2.6311  -2.6192  -2.5915  -2.5792  -2.5552
    -2.5438  -2.5250  -2.5205  -2.5076  -2.5004  -2.4905  -2.4810  -2.4588
    -2.4453  -2.4349  -2.4243  -2.4067  -2.4050  -2.3993  -2.3792  -2.3692
    -2.3582  -2.3498  -2.3401  -2.3351  -2.3243  -2.3136  -2.3012  -2.2730
    -2.2663  -2.2483  -2.2347  -2.2187  -2.2082  -2.1821  -2.1678  -2.1521
    -2.1365  -2.1200  -2.0859  -2.0569  -2.0559  -2.0321  -2.0292  -2.0021
    -1.9946  -1.9686  -1.9626  -1.9480  -1.9444  -1.9365  -1.9240  -1.8503
    -1.8486  -1.8286  -1.8236  -1.8194  -1.8067  -1.7874  -1.7829  -1.7720
    -1.7607  -1.7530  -1.7433  -1.7189  -1.7124  -1.7016  -1.6888  -1.6708
    -1.6583  -1.6554  -1.6470  -1.6380  -1.6285  -1.6218  -1.5960  -1.5784
    -1.5669  -1.5432  -1.5381  -1.5218  -1.5048  -1.5025  -1.4771  -1.4721
    -1.4528  -1.4326  -1.4122  -1.4031  -1.3952  -1.3913  -1.3838  -1.3650
    -1.3586  -1.3522  -1.3415  -1.3403  -1.3280  -1.3238  -1.3173  -1.3099
    -1.3078  -1.3047  -1.2903  -1.2774  -1.2719  -1.2658  -1.2513  -1.2462
    -1.2403  -1.2316  -1.2210  -1.2105  -1.2046  -1.1938  -1.1710  -1.1552
    -1.1515  -1.1314  -1.1067  -1.0896  -1.0699  -1.0646  -1.0004  -0.8295
    -0.7084  -0.5014  -0.1890  -0.1320   0.0985   0.1647   0.2444   0.4589
     0.7583   1.2401   1.7413   2.1105   2.2324   2.2653   2.4923

          k = 0.0320 0.0000 0.0000 ( 36032 PWs)   bands (ev):

   -17.3530 -11.4338  -7.9793  -6.8525  -6.7868  -6.6117  -6.5891  -6.5450
    -6.5030  -6.4820  -5.6925  -5.2842  -4.8609  -4.8352  -4.8025  -4.6865
    -4.5217  -4.3726  -4.2297  -4.2063  -4.1542  -4.1335  -4.0788  -4.0497
    -4.0395  -4.0271  -3.9118  -3.8783  -3.7669  -3.7435  -3.7310  -3.7166
    -3.6945  -3.6839  -3.6610  -3.6471  -3.6430  -3.6221  -3.6157  -3.5757
    -3.5370  -3.4985  -3.4843  -3.4504  -3.4102  -3.3767  -3.3419  -3.3159
    -3.2990  -3.2867  -3.2071  -3.1850  -3.1577  -3.1106  -3.0802  -3.0281
    -3.0247  -2.9943  -2.9787  -2.9254  -2.9102  -2.9044  -2.8959  -2.8897
    -2.8802  -2.8687  -2.8481  -2.8365  -2.8176  -2.8023  -2.7745  -2.7647
    -2.7273  -2.7071  -2.6926  -2.6874  -2.6655  -2.6504  -2.6370  -2.6180
    -2.5859  -2.5816  -2.5753  -2.5647  -2.5443  -2.5135  -2.5075  -2.4932
    -2.4798  -2.4624  -2.4508  -2.4401  -2.4278  -2.4170  -2.4115  -2.3973
    -2.3837  -2.3677  -2.3513  -2.3400  -2.3293  -2.3149  -2.2969  -2.2789
    -2.2684  -2.2475  -2.2373  -2.2246  -2.2214  -2.2108  -2.1967  -2.1853
    -2.1633  -2.1487  -2.1326  -2.1172  -2.1019  -2.0803  -2.0746  -2.0508
    -2.0384  -2.0218  -2.0151  -2.0058  -1.9977  -1.9651  -1.9532  -1.9340
    -1.9231  -1.9118  -1.8942  -1.8761  -1.8712  -1.8574  -1.8273  -1.8242
    -1.8104  -1.7970  -1.7718  -1.7672  -1.7545  -1.7438  -1.7162  -1.7056
    -1.6926  -1.6768  -1.6695  -1.6500  -1.6351  -1.6248  -1.6109  -1.5994
    -1.5778  -1.5699  -1.5484  -1.5290  -1.5217  -1.5056  -1.4864  -1.4768
    -1.4704  -1.4487  -1.4348  -1.4163  -1.4083  -1.3976  -1.3894  -1.3657
    -1.3596  -1.3472  -1.3365  -1.3309  -1.3277  -1.3180  -1.3129  -1.2937
    -1.2886  -1.2817  -1.2741  -1.2656  -1.2549  -1.2501  -1.2349  -1.2329
    -1.2148  -1.2059  -1.1973  -1.1751  -1.1503  -1.1030  -1.0738  -1.0354
    -0.9415  -0.8388  -0.7825  -0.7633  -0.6289  -0.5202  -0.4514  -0.3803
    -0.2357  -0.2098   0.1074   0.3406   0.4465   0.5046   0.6646   0.7615
     1.0211   1.3060   1.3743   1.4224   1.6743   1.7839   1.9583

          k = 0.0320 0.0392 0.0000 ( 36036 PWs)   bands (ev):

   -17.3529 -11.4330  -7.7429  -6.7238  -6.6389  -6.5909  -6.5630  -6.5196
    -6.4762  -6.4459  -5.9539  -5.5383  -5.2108  -5.0074  -4.8689  -4.7482
    -4.6657  -4.5306  -4.3983  -4.2587  -4.2258  -4.1871  -4.1616  -4.1450
    -4.1074  -4.0526  -3.9260  -3.9025  -3.8397  -3.7789  -3.7215  -3.7059
    -3.6844  -3.6426  -3.6200  -3.5991  -3.5752  -3.5593  -3.5451  -3.4985
    -3.4803  -3.4558  -3.4159  -3.3632  -3.3539  -3.3259  -3.2867  -3.2783
    -3.2451  -3.2334  -3.1972  -3.1751  -3.1561  -3.1281  -3.1204  -3.0905
    -3.0599  -3.0308  -3.0061  -2.9802  -2.9531  -2.9344  -2.9191  -2.9084
    -2.9008  -2.8799  -2.8465  -2.8071  -2.7819  -2.7602  -2.7378  -2.7192
    -2.6982  -2.6890  -2.6697  -2.6558  -2.6495  -2.6272  -2.6142  -2.6076
    -2.5866  -2.5655  -2.5445  -2.5313  -2.5075  -2.4949  -2.4853  -2.4793
    -2.4662  -2.4602  -2.4494  -2.4404  -2.4237  -2.4130  -2.3937  -2.3913
    -2.3792  -2.3741  -2.3632  -2.3507  -2.3349  -2.3156  -2.3015  -2.2842
    -2.2651  -2.2561  -2.2489  -2.2364  -2.2110  -2.1899  -2.1785  -2.1588
    -2.1315  -2.1235  -2.1112  -2.0922  -2.0793  -2.0509  -2.0342  -2.0244
    -2.0012  -1.9933  -1.9832  -1.9588  -1.9433  -1.9368  -1.9126  -1.9000
    -1.8913  -1.8780  -1.8708  -1.8551  -1.8496  -1.8367  -1.8202  -1.8058
    -1.7882  -1.7788  -1.7711  -1.7577  -1.7363  -1.7193  -1.7080  -1.7033
    -1.6836  -1.6731  -1.6618  -1.6464  -1.6425  -1.6331  -1.6140  -1.6050
    -1.5872  -1.5696  -1.5527  -1.5377  -1.5341  -1.5076  -1.4999  -1.4775
    -1.4730  -1.4631  -1.4426  -1.4351  -1.4246  -1.4015  -1.3945  -1.3901
    -1.3727  -1.3644  -1.3459  -1.3315  -1.3236  -1.3147  -1.3004  -1.2949
    -1.2751  -1.2685  -1.2556  -1.2526  -1.2445  -1.2355  -1.2309  -1.2193
    -1.2072  -1.1989  -1.1811  -1.1705  -1.1598  -1.1425  -1.0971  -1.0692
    -1.0568  -0.9948  -0.8947  -0.8578  -0.8228  -0.6779  -0.6329  -0.3991
    -0.3314  -0.1178  -0.0218   0.0308   0.2646   0.5663   0.7170   0.9064
     1.0085   1.1755   1.3099   1.4099   1.6057   1.9544   2.2227

          k = 0.0320-0.0784 0.0000 ( 35966 PWs)   bands (ev):

   -17.3528 -11.4321  -7.0710  -7.0573  -6.6729  -6.5980  -6.5556  -6.5178
    -6.4855  -5.9873  -5.9381  -5.9141  -5.8610  -5.0932  -4.9767  -4.6971
    -4.6665  -4.5823  -4.5263  -4.4733  -4.4552  -4.2564  -4.1709  -4.1263
    -4.1030  -4.0438  -3.9853  -3.8958  -3.8136  -3.7430  -3.6982  -3.6808
    -3.6679  -3.6201  -3.6034  -3.5797  -3.5524  -3.5123  -3.4680  -3.4514
    -3.4468  -3.4308  -3.4148  -3.4027  -3.3892  -3.3663  -3.3438  -3.3216
    -3.2709  -3.2210  -3.1793  -3.1505  -3.1281  -3.1089  -3.0833  -3.0683
    -3.0395  -3.0289  -3.0124  -2.9910  -2.9694  -2.9471  -2.9233  -2.8981
    -2.8715  -2.8556  -2.8353  -2.7912  -2.7812  -2.7709  -2.7355  -2.7069
    -2.6956  -2.6805  -2.6707  -2.6239  -2.6150  -2.5916  -2.5770  -2.5660
    -2.5638  -2.5500  -2.5438  -2.5242  -2.5095  -2.4860  -2.4714  -2.4607
    -2.4561  -2.4373  -2.4293  -2.4237  -2.4068  -2.4016  -2.3877  -2.3659
    -2.3477  -2.3398  -2.3322  -2.3242  -2.3139  -2.3076  -2.3007  -2.2911
    -2.2779  -2.2659  -2.2565  -2.2386  -2.2154  -2.1979  -2.1779  -2.1649
    -2.1437  -2.1108  -2.0917  -2.0821  -2.0630  -2.0476  -2.0367  -2.0255
    -2.0087  -2.0031  -1.9834  -1.9785  -1.9623  -1.9580  -1.9369  -1.9207
    -1.9078  -1.8874  -1.8630  -1.8527  -1.8380  -1.8230  -1.7951  -1.7847
    -1.7781  -1.7565  -1.7495  -1.7386  -1.7216  -1.7121  -1.6861  -1.6730
    -1.6688  -1.6608  -1.6531  -1.6447  -1.6266  -1.6068  -1.5864  -1.5795
    -1.5514  -1.5476  -1.5306  -1.5114  -1.4903  -1.4821  -1.4706  -1.4646
    -1.4563  -1.4447  -1.4234  -1.4204  -1.4102  -1.3921  -1.3810  -1.3604
    -1.3517  -1.3444  -1.3410  -1.3271  -1.3245  -1.3107  -1.3047  -1.2902
    -1.2865  -1.2728  -1.2656  -1.2544  -1.2466  -1.2324  -1.2210  -1.2054
    -1.2032  -1.1929  -1.1848  -1.1771  -1.1687  -1.1475  -1.1377  -1.1110
    -1.1023  -1.0882  -1.0487  -0.9550  -0.8984  -0.7662  -0.7315  -0.6463
    -0.4944  -0.4388  -0.2772  -0.0124   0.0924   0.3817   0.7886   0.8827
     1.0545   1.2337   1.4262   1.6480   2.2576   2.3785   2.5431

          k = 0.0320-0.0392 0.0000 ( 36036 PWs)   bands (ev):

   -17.3529 -11.4330  -7.7440  -6.7375  -6.6243  -6.5971  -6.5524  -6.5173
    -6.4753  -6.4469  -5.9575  -5.5304  -5.2343  -4.9996  -4.8713  -4.7487
    -4.6545  -4.5321  -4.4012  -4.2498  -4.2202  -4.1836  -4.1591  -4.1435
    -4.1220  -4.0599  -3.9596  -3.8833  -3.8289  -3.7633  -3.7241  -3.7005
    -3.6792  -3.6557  -3.6204  -3.5934  -3.5801  -3.5669  -3.5418  -3.5194
    -3.4712  -3.4402  -3.4267  -3.3811  -3.3560  -3.3337  -3.2900  -3.2603
    -3.2445  -3.2139  -3.1987  -3.1873  -3.1599  -3.1381  -3.1158  -3.0776
    -3.0675  -3.0215  -2.9975  -2.9841  -2.9494  -2.9417  -2.9211  -2.9110
    -2.8989  -2.8575  -2.8422  -2.8153  -2.7828  -2.7682  -2.7381  -2.7278
    -2.7036  -2.6940  -2.6728  -2.6605  -2.6470  -2.6221  -2.6131  -2.5998
    -2.5865  -2.5685  -2.5529  -2.5281  -2.5209  -2.4995  -2.4858  -2.4797
    -2.4683  -2.4593  -2.4452  -2.4317  -2.4150  -2.4032  -2.3938  -2.3847
    -2.3839  -2.3690  -2.3524  -2.3427  -2.3351  -2.3167  -2.3006  -2.2843
    -2.2669  -2.2522  -2.2362  -2.2239  -2.2097  -2.2016  -2.1777  -2.1655
    -2.1412  -2.1237  -2.1080  -2.0914  -2.0734  -2.0515  -2.0426  -2.0297
    -2.0053  -2.0007  -1.9845  -1.9598  -1.9534  -1.9345  -1.9309  -1.9061
    -1.8920  -1.8825  -1.8671  -1.8590  -1.8470  -1.8414  -1.8103  -1.8008
    -1.7960  -1.7767  -1.7609  -1.7566  -1.7401  -1.7249  -1.7144  -1.6912
    -1.6797  -1.6711  -1.6661  -1.6486  -1.6371  -1.6271  -1.6121  -1.5970
    -1.5847  -1.5755  -1.5542  -1.5403  -1.5291  -1.5149  -1.4941  -1.4790
    -1.4679  -1.4572  -1.4440  -1.4395  -1.4221  -1.4080  -1.3962  -1.3878
    -1.3747  -1.3610  -1.3562  -1.3409  -1.3212  -1.3126  -1.3021  -1.2878
    -1.2761  -1.2725  -1.2537  -1.2519  -1.2439  -1.2388  -1.2279  -1.2253
    -1.2068  -1.1965  -1.1885  -1.1741  -1.1639  -1.1532  -1.0915  -1.0630
    -1.0363  -0.9812  -0.9083  -0.8637  -0.8037  -0.6624  -0.5955  -0.4213
    -0.3306  -0.1219  -0.0568   0.0531   0.2706   0.5644   0.6897   0.9013
     1.0104   1.1723   1.3161   1.3849   1.6325   1.9556   2.1984

          k =-0.0640 0.0000 0.0000 ( 36024 PWs)   bands (ev):

   -17.3529 -11.4342  -7.5342  -7.4929  -6.7060  -6.5901  -6.5563  -6.5159
    -6.4886  -6.3981  -6.2518  -5.0733  -4.8316  -4.5724  -4.5378  -4.5322
    -4.5134  -4.5060  -4.4988  -4.1253  -4.0651  -4.0531  -4.0320  -4.0294
    -3.9766  -3.9490  -3.8836  -3.8532  -3.8397  -3.8197  -3.7982  -3.7562
    -3.7168  -3.6969  -3.6857  -3.6671  -3.6253  -3.6166  -3.5994  -3.5650
    -3.5425  -3.5270  -3.5128  -3.4900  -3.4535  -3.3781  -3.3409  -3.3372
    -3.3185  -3.2560  -3.2323  -3.1988  -3.1287  -3.0869  -3.0652  -3.0423
    -3.0146  -2.9942  -2.9725  -2.9592  -2.9289  -2.9203  -2.9158  -2.8982
    -2.8791  -2.8631  -2.8558  -2.8412  -2.8306  -2.8206  -2.8089  -2.7679
    -2.7516  -2.7369  -2.7156  -2.6964  -2.6864  -2.6705  -2.6650  -2.6517
    -2.6376  -2.6180  -2.5806  -2.5544  -2.5438  -2.5407  -2.5244  -2.5117
    -2.5034  -2.4996  -2.4825  -2.4601  -2.4374  -2.4228  -2.4095  -2.3948
    -2.3774  -2.3705  -2.3574  -2.3411  -2.3311  -2.3137  -2.2923  -2.2649
    -2.2454  -2.2405  -2.2365  -2.2209  -2.2050  -2.1997  -2.1668  -2.1591
    -2.1470  -2.1349  -2.1324  -2.1059  -2.0981  -2.0880  -2.0800  -2.0752
    -2.0718  -2.0540  -2.0321  -2.0233  -2.0167  -1.9838  -1.9711  -1.9544
    -1.9431  -1.9290  -1.9029  -1.8981  -1.8896  -1.8840  -1.8816  -1.8418
    -1.8270  -1.7964  -1.7796  -1.7588  -1.7486  -1.7417  -1.7159  -1.7028
    -1.6940  -1.6702  -1.6642  -1.6580  -1.6513  -1.6334  -1.6249  -1.6055
    -1.5973  -1.5690  -1.5653  -1.5525  -1.5283  -1.5198  -1.5074  -1.5034
    -1.4873  -1.4702  -1.4563  -1.4304  -1.4074  -1.3961  -1.3838  -1.3692
    -1.3616  -1.3537  -1.3434  -1.3314  -1.3269  -1.3061  -1.2951  -1.2879
    -1.2825  -1.2768  -1.2726  -1.2507  -1.2308  -1.2221  -1.2060  -1.2022
    -1.1882  -1.1682  -1.1577  -1.1310  -1.1125  -1.0432  -0.9762  -0.8937
    -0.8057  -0.7747  -0.7090  -0.6313  -0.5398  -0.4747  -0.2102  -0.1457
    -0.1324  -0.0207   0.1307   0.1546   0.2444   0.3659   0.7049   0.8085
     1.0595   1.1773   1.2910   1.3687   1.5764   1.8821   1.9515

          k =-0.0640 0.0392 0.0000 ( 36040 PWs)   bands (ev):

   -17.3528 -11.4334  -7.3073  -7.2656  -6.6839  -6.5915  -6.5525  -6.5181
    -6.4901  -6.2088  -6.0701  -5.5769  -5.5526  -5.0393  -4.8008  -4.5745
    -4.5502  -4.5292  -4.4956  -4.2124  -4.1747  -4.1284  -4.0185  -4.0112
    -3.9904  -3.9736  -3.9494  -3.9184  -3.8725  -3.8317  -3.8190  -3.7942
    -3.7036  -3.6758  -3.6498  -3.6149  -3.6015  -3.5786  -3.5407  -3.5109
    -3.5014  -3.4677  -3.4511  -3.4135  -3.3710  -3.3292  -3.2786  -3.2375
    -3.2202  -3.1971  -3.1873  -3.1736  -3.1337  -3.1232  -3.1014  -3.0825
    -3.0674  -3.0378  -3.0163  -2.9854  -2.9581  -2.9301  -2.9114  -2.8963
    -2.8749  -2.8654  -2.8468  -2.8366  -2.8205  -2.8001  -2.7866  -2.7563
    -2.7248  -2.7175  -2.7067  -2.6946  -2.6757  -2.6634  -2.6548  -2.6219
    -2.6003  -2.5894  -2.5427  -2.5216  -2.5166  -2.5105  -2.4991  -2.4881
    -2.4686  -2.4603  -2.4523  -2.4479  -2.4445  -2.4236  -2.4021  -2.3823
    -2.3657  -2.3507  -2.3277  -2.3195  -2.3169  -2.3108  -2.2929  -2.2851
    -2.2739  -2.2497  -2.2399  -2.2280  -2.2120  -2.2097  -2.1834  -2.1664
    -2.1570  -2.1294  -2.1176  -2.0947  -2.0904  -2.0734  -2.0635  -2.0468
    -2.0328  -2.0145  -1.9939  -1.9794  -1.9584  -1.9346  -1.9253  -1.9198
    -1.9069  -1.8901  -1.8780  -1.8629  -1.8615  -1.8525  -1.8480  -1.8366
    -1.8230  -1.8008  -1.7968  -1.7761  -1.7626  -1.7532  -1.7321  -1.7248
    -1.7143  -1.6797  -1.6622  -1.6410  -1.6286  -1.6223  -1.6062  -1.5918
    -1.5681  -1.5582  -1.5508  -1.5385  -1.5329  -1.5176  -1.5141  -1.5015
    -1.4785  -1.4542  -1.4511  -1.4350  -1.4191  -1.4097  -1.3976  -1.3888
    -1.3665  -1.3613  -1.3471  -1.3307  -1.3165  -1.3042  -1.2813  -1.2704
    -1.2682  -1.2584  -1.2366  -1.2322  -1.2239  -1.2147  -1.2032  -1.1908
    -1.1888  -1.1762  -1.1605  -1.1554  -1.1515  -1.1435  -1.1232  -1.0448
    -0.9965  -0.9857  -0.9027  -0.7717  -0.6383  -0.5830  -0.1864  -0.0905
     0.1286   0.1749   0.2513   0.3574   0.4964   0.5401   0.6425   0.7239
     1.2379   1.3380   1.4028   1.4191   1.6050   1.6197   1.6758

          k =-0.0640-0.0784 0.0000 ( 36100 PWs)   bands (ev):

   -17.3527 -11.4326  -6.7740  -6.6782  -6.6520  -6.6269  -6.5781  -6.5496
    -6.4941  -6.4633  -6.4457  -5.6674  -5.5528  -5.5256  -5.4472  -4.6752
    -4.5498  -4.4261  -4.3511  -4.3475  -4.2960  -4.2666  -4.2450  -4.0615
    -3.9493  -3.9268  -3.9151  -3.8802  -3.8616  -3.8532  -3.8348  -3.8186
    -3.7368  -3.6936  -3.6466  -3.5887  -3.5554  -3.5263  -3.4844  -3.4732
    -3.4444  -3.4357  -3.4004  -3.3741  -3.3716  -3.3429  -3.3165  -3.3032
    -3.2830  -3.2401  -3.2121  -3.1765  -3.1395  -3.0633  -3.0512  -3.0139
    -2.9859  -2.9736  -2.9611  -2.9561  -2.9445  -2.9403  -2.9326  -2.9206
    -2.9126  -2.9058  -2.9034  -2.8930  -2.8278  -2.7681  -2.7630  -2.7451
    -2.7139  -2.6699  -2.6520  -2.6377  -2.6266  -2.6168  -2.5884  -2.5807
    -2.5610  -2.5476  -2.5377  -2.5270  -2.5089  -2.4925  -2.4650  -2.4625
    -2.4606  -2.4472  -2.4353  -2.4288  -2.4186  -2.4113  -2.3858  -2.3533
    -2.3440  -2.3292  -2.3083  -2.3056  -2.3008  -2.2880  -2.2815  -2.2654
    -2.2629  -2.2538  -2.2429  -2.2365  -2.2154  -2.2124  -2.1918  -2.1859
    -2.1752  -2.1575  -2.1507  -2.1373  -2.1241  -2.0764  -2.0661  -2.0556
    -2.0366  -2.0234  -2.0216  -2.0110  -1.9920  -1.9871  -1.9694  -1.9383
    -1.9341  -1.9173  -1.9032  -1.8894  -1.8807  -1.8627  -1.8508  -1.8064
    -1.8035  -1.7693  -1.7451  -1.7350  -1.7190  -1.7095  -1.6955  -1.6792
    -1.6619  -1.6508  -1.6086  -1.5968  -1.5891  -1.5846  -1.5717  -1.5692
    -1.5531  -1.5367  -1.5244  -1.5182  -1.5030  -1.4725  -1.4667  -1.4644
    -1.4558  -1.4427  -1.4402  -1.4072  -1.3914  -1.3791  -1.3759  -1.3689
    -1.3580  -1.3488  -1.3368  -1.3271  -1.3139  -1.2948  -1.2828  -1.2811
    -1.2771  -1.2709  -1.2517  -1.2415  -1.2321  -1.2185  -1.2080  -1.1998
    -1.1780  -1.1684  -1.1577  -1.1481  -1.1370  -1.1225  -1.1146  -1.1070
    -1.0878  -1.0536  -1.0287  -1.0019  -0.8552  -0.6915  -0.5051  -0.2976
     0.0887   0.1381   0.3656   0.4043   0.5018   0.5392   0.7650   0.8437
     0.9424   0.9898   1.4325   1.6707   1.7402   1.8036   1.8828

     the Fermi energy is     0.4078 ev

!    total energy              =   -4330.06816067 Ry
     Harris-Foulkes estimate   =   -4330.06816063 Ry
     estimated scf accuracy    <       0.00000497 Ry

     The total energy is the sum of the following terms:

     one-electron contribution =  -48579.52331817 Ry
     hartree contribution      =   24717.62402127 Ry
     xc contribution           =   -1494.62810055 Ry
     ewald contribution        =   21026.45952742 Ry
     electric field correction =       0.00015100 Ry
     smearing contrib. (-TS)   =      -0.00044164 Ry

     convergence has been achieved in  38 iterations

     Forces acting on atoms (Ry/au):


     negative rho (up, down):  3.698E-03 0.000E+00
     atom    1 type  1   force =    -0.00798101    0.00557996   -0.00572015
     atom    2 type  2   force =     0.01038938    0.00605504   -0.00840586
     atom    3 type  2   force =    -0.00142213    0.00559230    0.01976290
     atom    4 type  2   force =     0.00073834    0.01161301    0.01252680
     atom    5 type  2   force =    -0.00130754   -0.00119428   -0.00064282
     atom    6 type  2   force =     0.00077865    0.00162486    0.00251060
     atom    7 type  2   force =    -0.00246983    0.00055477    0.00043632
     atom    8 type  2   force =    -0.00014906    0.00033983   -0.00069708
     atom    9 type  2   force =     0.00048513   -0.00086063   -0.00025941
     atom   10 type  2   force =     0.00337668   -0.00089492    0.00008571
     atom   11 type  2   force =    -0.00129906   -0.00068579   -0.00409425
     atom   12 type  2   force =    -0.00030571   -0.00055570    0.00327072
     atom   13 type  2   force =    -0.00038514   -0.00040925    0.00149869
     atom   14 type  2   force =     0.00012714    0.00035289    0.00258681
     atom   15 type  2   force =    -0.00057619   -0.00030753    0.00128676
     atom   16 type  2   force =    -0.00113804    0.00014390    0.00099562
     atom   17 type  2   force =     0.00007109    0.00031114    0.00073698
     atom   18 type  2   force =     0.00100428   -0.00007873   -0.00010921
     atom   19 type  2   force =     0.00107011    0.00195976    0.00041871
     atom   20 type  2   force =     0.00168223    0.00134799    0.00267065
     atom   21 type  2   force =     0.00077409    0.00238682    0.00010512
     atom   22 type  2   force =     0.00000731    0.00237213   -0.00182204
     atom   23 type  2   force =    -0.00131939    0.00380214   -0.00073273
     atom   24 type  2   force =     0.00187281    0.00341977   -0.00122138
     atom   25 type  2   force =     0.00009981   -0.00405517   -0.00749107
     atom   26 type  2   force =     0.00048329   -0.00361537   -0.00872350
     atom   27 type  2   force =     0.00062778   -0.00335951   -0.00867942
     atom   28 type  2   force =    -0.00065815   -0.00220038   -0.00897180
     atom   29 type  2   force =    -0.00068767   -0.00218426   -0.00592421
     atom   30 type  2   force =     0.00065257   -0.00192672   -0.00567123
     atom   31 type  2   force =     0.00039734   -0.00165110    0.00064776
     atom   32 type  2   force =    -0.00052227   -0.00210275    0.00112657
     atom   33 type  2   force =     0.00030605   -0.00321259    0.00082976
     atom   34 type  2   force =     0.00036985    0.00353877    0.01302316
     atom   35 type  2   force =     0.00073283    0.00438758    0.01145043
     atom   36 type  2   force =    -0.00120623    0.00397117    0.01127823
     atom   37 type  3   force =    -0.00774488   -0.02420133    0.00256572
     atom   38 type  4   force =    -0.00434179   -0.01580395   -0.00511619
     atom   39 type  5   force =     0.00197034    0.00594028   -0.01030875
     atom   40 type  5   force =    -0.00005088    0.00315126   -0.00454466
     atom   41 type  5   force =     0.00554787    0.00085461   -0.00067829

     Total force =     0.057167     Total SCF correction =     0.005142
 !ASE
     Check: negative starting charge=   -0.003237
     NEW-OLD atomic charge density approx. for the potential

     Check: negative/imaginary core charge=   -0.000012    0.000000
     Check: negative starting charge=   -0.003237

     negative rho (up, down):  3.697E-03 0.000E+00
 
     Adding external electric field

     Computed dipole along edir(3) : 
        Dipole               -0.3393 Ry au,         -0.8623 Debye
        Dipole field         -0.0004 Ry au
 
        Potential amp.        0.0468 Ry
        Total length         52.5607 bohr
 

     total cpu time spent up to now is    10847.9 secs

     per-process dynamical memory:   319.8 Mb

     Self-consistent Calculation

     iteration #  1     ecut=    36.75 Ry     beta=0.10
     Davidson diagonalization with overlap
     ethr =  2.87E-09,  avg # of iterations =  7.5

     negative rho (up, down):  3.700E-03 0.000E+00
 
     Adding external electric field

     Computed dipole along edir(3) : 
        Dipole               -0.3392 Ry au,         -0.8622 Debye
        Dipole field         -0.0004 Ry au
 
        Potential amp.        0.0468 Ry
        Total length         52.5607 bohr
 

     total cpu time spent up to now is    11289.1 secs

     total energy              =   -4330.06918802 Ry
     Harris-Foulkes estimate   =   -4330.06919470 Ry
     estimated scf accuracy    <       0.00015899 Ry

     iteration #  2     ecut=    36.75 Ry     beta=0.10
     Davidson diagonalization with overlap
     ethr =  3.88E-08,  avg # of iterations =  1.0

     negative rho (up, down):  3.718E-03 0.000E+00
 
     Adding external electric field

     Computed dipole along edir(3) : 
        Dipole               -0.3390 Ry au,         -0.8616 Debye
        Dipole field         -0.0004 Ry au
 
        Potential amp.        0.0467 Ry
        Total length         52.5607 bohr
 

     total cpu time spent up to now is    11468.7 secs

     total energy              =   -4330.06915922 Ry
     Harris-Foulkes estimate   =   -4330.06918867 Ry
     estimated scf accuracy    <       0.00012392 Ry

     iteration #  3     ecut=    36.75 Ry     beta=0.10
     Davidson diagonalization with overlap
     ethr =  3.02E-08,  avg # of iterations =  3.0

     negative rho (up, down):  3.708E-03 0.000E+00
 
     Adding external electric field

     Computed dipole along edir(3) : 
        Dipole               -0.3390 Ry au,         -0.8615 Debye
        Dipole field         -0.0004 Ry au
 
        Potential amp.        0.0467 Ry
        Total length         52.5607 bohr
 

     total cpu time spent up to now is    11665.6 secs

     total energy              =   -4330.06917113 Ry
     Harris-Foulkes estimate   =   -4330.06917502 Ry
     estimated scf accuracy    <       0.00003153 Ry

     iteration #  4     ecut=    36.75 Ry     beta=0.10
     Davidson diagonalization with overlap
     ethr =  7.69E-09,  avg # of iterations =  3.1

     negative rho (up, down):  3.716E-03 0.000E+00
 
     Adding external electric field

     Computed dipole along edir(3) : 
        Dipole               -0.3384 Ry au,         -0.8602 Debye
        Dipole field         -0.0004 Ry au
 
        Potential amp.        0.0467 Ry
        Total length         52.5607 bohr
 

     total cpu time spent up to now is    11862.6 secs

     total energy              =   -4330.06916832 Ry
     Harris-Foulkes estimate   =   -4330.06917573 Ry
     estimated scf accuracy    <       0.00002912 Ry

     iteration #  5     ecut=    36.75 Ry     beta=0.10
     Davidson diagonalization with overlap
     ethr =  7.10E-09,  avg # of iterations =  3.0

     negative rho (up, down):  3.690E-03 0.000E+00
 
     Adding external electric field

     Computed dipole along edir(3) : 
        Dipole               -0.3364 Ry au,         -0.8552 Debye
        Dipole field         -0.0004 Ry au
 
        Potential amp.        0.0464 Ry
        Total length         52.5607 bohr
 

     total cpu time spent up to now is    12049.7 secs

     End of self-consistent calculation

          k = 0.0000 0.0000 0.0000 ( 36131 PWs)   bands (ev):

   -17.3248 -11.4290  -8.1367  -6.9620  -6.6590  -6.6026  -6.5548  -6.5130
    -6.4859  -5.8108  -5.7629  -5.4292  -5.0376  -4.9712  -4.9448  -4.8108
    -4.6138  -4.4973  -4.3038  -4.2072  -4.1285  -4.0865  -4.0328  -4.0007
    -3.9924  -3.9698  -3.9485  -3.8856  -3.7683  -3.7537  -3.7306  -3.7123
    -3.6897  -3.6835  -3.6637  -3.6380  -3.5788  -3.5711  -3.5622  -3.5606
    -3.5339  -3.5287  -3.5046  -3.4234  -3.4110  -3.3811  -3.3548  -3.3100
    -3.2606  -3.2264  -3.2084  -3.1966  -3.1755  -3.1296  -3.0812  -3.0416
    -2.9949  -2.9503  -2.9342  -2.9170  -2.9098  -2.8988  -2.8914  -2.8732
    -2.8671  -2.8509  -2.8389  -2.8202  -2.7961  -2.7885  -2.7724  -2.7608
    -2.7386  -2.7318  -2.7034  -2.6814  -2.6705  -2.6481  -2.6266  -2.6092
    -2.5908  -2.5689  -2.5513  -2.5504  -2.5392  -2.4941  -2.4853  -2.4711
    -2.4561  -2.4491  -2.4420  -2.4284  -2.4242  -2.4144  -2.3900  -2.3715
    -2.3655  -2.3535  -2.3348  -2.3276  -2.3140  -2.3030  -2.2904  -2.2612
    -2.2536  -2.2433  -2.2289  -2.2176  -2.2017  -2.1993  -2.1845  -2.1623
    -2.1584  -2.1515  -2.1335  -2.1250  -2.1133  -2.0831  -2.0750  -2.0499
    -2.0392  -2.0089  -2.0036  -1.9962  -1.9701  -1.9582  -1.9326  -1.9308
    -1.9185  -1.9056  -1.8944  -1.8733  -1.8356  -1.8328  -1.8157  -1.8044
    -1.7886  -1.7584  -1.7494  -1.7430  -1.7386  -1.7030  -1.6895  -1.6663
    -1.6378  -1.6259  -1.6121  -1.5982  -1.5913  -1.5815  -1.5715  -1.5669
    -1.5482  -1.5339  -1.5285  -1.5198  -1.5124  -1.5115  -1.4961  -1.4815
    -1.4735  -1.4709  -1.4634  -1.4431  -1.4280  -1.4260  -1.4215  -1.4138
    -1.4026  -1.3818  -1.3682  -1.3592  -1.3580  -1.3389  -1.3232  -1.3118
    -1.3041  -1.2981  -1.2922  -1.2801  -1.2678  -1.2538  -1.2517  -1.2478
    -1.2225  -1.2150  -1.2117  -1.2078  -1.2047  -1.1884  -1.1508  -1.1152
    -1.0592  -1.0378  -1.0262  -0.8596  -0.7332  -0.6910  -0.5882  -0.3443
    -0.0694   0.0517   0.3203   0.3987   0.4087   0.4216   0.4794   0.6886
     1.0364   1.0748   1.1324   1.1624   1.2143   1.3250   1.7952

          k = 0.0000 0.0392 0.0000 ( 36033 PWs)   bands (ev):

   -17.3247 -11.4282  -7.8987  -6.7687  -6.6542  -6.5967  -6.5549  -6.5187
    -6.4805  -6.0897  -5.6374  -5.5918  -5.3622  -4.9950  -4.9521  -4.7126
    -4.5884  -4.5103  -4.4709  -4.4550  -4.3382  -4.2895  -4.2326  -4.1637
    -4.0962  -3.9777  -3.8926  -3.8684  -3.7826  -3.7587  -3.7524  -3.7342
    -3.7048  -3.6501  -3.6017  -3.5705  -3.5289  -3.5138  -3.5093  -3.4911
    -3.4418  -3.4057  -3.3954  -3.3490  -3.3271  -3.3186  -3.3120  -3.2930
    -3.2855  -3.2397  -3.2192  -3.1934  -3.1444  -3.1347  -3.1123  -3.0923
    -3.0727  -3.0480  -3.0363  -3.0079  -2.9548  -2.9219  -2.8987  -2.8914
    -2.8650  -2.8320  -2.8125  -2.8015  -2.7533  -2.7438  -2.7249  -2.7086
    -2.6971  -2.6751  -2.6614  -2.6460  -2.6391  -2.6158  -2.5970  -2.5807
    -2.5665  -2.5576  -2.5451  -2.5171  -2.5041  -2.4905  -2.4688  -2.4650
    -2.4456  -2.4423  -2.4164  -2.4071  -2.4051  -2.3988  -2.3893  -2.3830
    -2.3733  -2.3709  -2.3560  -2.3402  -2.3321  -2.3202  -2.3151  -2.2867
    -2.2704  -2.2625  -2.2426  -2.2256  -2.1908  -2.1818  -2.1607  -2.1476
    -2.1324  -2.1118  -2.1047  -2.0858  -2.0589  -2.0398  -2.0266  -2.0139
    -2.0053  -1.9892  -1.9788  -1.9553  -1.9436  -1.9320  -1.9062  -1.8964
    -1.8820  -1.8704  -1.8559  -1.8392  -1.8318  -1.8111  -1.8045  -1.7920
    -1.7832  -1.7628  -1.7447  -1.7379  -1.7144  -1.7092  -1.6836  -1.6790
    -1.6560  -1.6443  -1.6207  -1.6122  -1.5909  -1.5860  -1.5741  -1.5635
    -1.5494  -1.5335  -1.5174  -1.5095  -1.4979  -1.4850  -1.4757  -1.4687
    -1.4592  -1.4483  -1.4453  -1.4348  -1.4293  -1.4227  -1.4117  -1.4003
    -1.3953  -1.3865  -1.3689  -1.3635  -1.3532  -1.3471  -1.3364  -1.3194
    -1.3138  -1.3065  -1.2928  -1.2871  -1.2814  -1.2662  -1.2568  -1.2443
    -1.2330  -1.2129  -1.2047  -1.1970  -1.1687  -1.1526  -1.1393  -1.1305
    -1.1231  -1.0582  -1.0445  -1.0043  -0.8902  -0.7831  -0.7087  -0.6033
    -0.4387  -0.3751  -0.1884  -0.1339  -0.0683   0.0619   0.7351   0.8473
     0.9172   1.1526   1.4293   1.5830   1.8949   2.2362   2.2474

          k = 0.0000-0.0784 0.0000 ( 36028 PWs)   bands (ev):

   -17.3246 -11.4273  -7.2185  -7.2009  -6.6585  -6.6064  -6.5559  -6.5213
    -6.4894  -6.0732  -6.0618  -5.2040  -5.1358  -5.1174  -5.0855  -4.8711
    -4.7849  -4.7140  -4.5164  -4.4698  -4.4530  -4.4413  -4.3951  -4.2692
    -4.1900  -4.0019  -3.8711  -3.8495  -3.8018  -3.7561  -3.6782  -3.6387
    -3.5949  -3.5590  -3.5428  -3.5367  -3.5211  -3.4993  -3.4510  -3.4259
    -3.4086  -3.3964  -3.3923  -3.3870  -3.3593  -3.3561  -3.3237  -3.3222
    -3.3080  -3.2956  -3.2690  -3.2358  -3.1946  -3.1338  -3.1156  -3.0639
    -3.0554  -3.0432  -3.0191  -2.9648  -2.9602  -2.9263  -2.8943  -2.8746
    -2.8382  -2.8234  -2.8082  -2.7576  -2.7419  -2.7316  -2.7175  -2.7081
    -2.6720  -2.6592  -2.6389  -2.6318  -2.6187  -2.5897  -2.5775  -2.5543
    -2.5431  -2.5242  -2.5198  -2.5070  -2.4996  -2.4897  -2.4803  -2.4580
    -2.4450  -2.4339  -2.4238  -2.4059  -2.4050  -2.3987  -2.3786  -2.3687
    -2.3572  -2.3491  -2.3390  -2.3344  -2.3239  -2.3124  -2.3005  -2.2716
    -2.2656  -2.2473  -2.2339  -2.2178  -2.2071  -2.1813  -2.1672  -2.1513
    -2.1359  -2.1201  -2.0857  -2.0562  -2.0550  -2.0315  -2.0288  -2.0015
    -1.9938  -1.9682  -1.9615  -1.9475  -1.9441  -1.9360  -1.9231  -1.8495
    -1.8479  -1.8284  -1.8229  -1.8188  -1.8061  -1.7869  -1.7820  -1.7710
    -1.7602  -1.7525  -1.7434  -1.7180  -1.7119  -1.7009  -1.6879  -1.6700
    -1.6572  -1.6546  -1.6463  -1.6372  -1.6279  -1.6211  -1.5951  -1.5769
    -1.5661  -1.5427  -1.5372  -1.5214  -1.5045  -1.5028  -1.4768  -1.4717
    -1.4518  -1.4319  -1.4117  -1.4024  -1.3949  -1.3906  -1.3829  -1.3644
    -1.3583  -1.3517  -1.3410  -1.3399  -1.3274  -1.3231  -1.3165  -1.3093
    -1.3072  -1.3044  -1.2897  -1.2764  -1.2715  -1.2653  -1.2507  -1.2457
    -1.2394  -1.2308  -1.2206  -1.2105  -1.2040  -1.1935  -1.1704  -1.1546
    -1.1507  -1.1308  -1.1058  -1.0889  -1.0693  -1.0636  -1.0001  -0.8279
    -0.7073  -0.5009  -0.1893  -0.1323   0.0997   0.1650   0.2465   0.4594
     0.7588   1.2425   1.7399   2.1120   2.2326   2.2656   2.4938

          k = 0.0320 0.0000 0.0000 ( 36032 PWs)   bands (ev):

   -17.3247 -11.4294  -7.9783  -6.8505  -6.7852  -6.6077  -6.5874  -6.5442
    -6.5048  -6.4843  -5.6917  -5.2832  -4.8600  -4.8341  -4.8021  -4.6911
    -4.5005  -4.3776  -4.2284  -4.2050  -4.1532  -4.1324  -4.0769  -4.0485
    -4.0382  -4.0261  -3.9077  -3.8757  -3.7648  -3.7420  -3.7299  -3.7151
    -3.6929  -3.6828  -3.6599  -3.6457  -3.6420  -3.6204  -3.6136  -3.5741
    -3.5358  -3.4975  -3.4823  -3.4483  -3.4089  -3.3752  -3.3408  -3.3136
    -3.2979  -3.2853  -3.2053  -3.1837  -3.1566  -3.1083  -3.0791  -3.0267
    -3.0215  -2.9922  -2.9780  -2.9247  -2.9093  -2.9031  -2.8952  -2.8883
    -2.8793  -2.8677  -2.8474  -2.8361  -2.8167  -2.8013  -2.7740  -2.7638
    -2.7267  -2.7060  -2.6925  -2.6864  -2.6645  -2.6494  -2.6360  -2.6172
    -2.5851  -2.5810  -2.5747  -2.5638  -2.5434  -2.5131  -2.5062  -2.4926
    -2.4789  -2.4619  -2.4500  -2.4394  -2.4275  -2.4165  -2.4110  -2.3970
    -2.3832  -2.3670  -2.3508  -2.3399  -2.3286  -2.3146  -2.2960  -2.2783
    -2.2678  -2.2471  -2.2368  -2.2240  -2.2205  -2.2099  -2.1962  -2.1847
    -2.1624  -2.1479  -2.1317  -2.1168  -2.1012  -2.0797  -2.0736  -2.0501
    -2.0372  -2.0209  -2.0145  -2.0049  -1.9972  -1.9644  -1.9527  -1.9332
    -1.9227  -1.9110  -1.8936  -1.8753  -1.8703  -1.8566  -1.8266  -1.8237
    -1.8097  -1.7966  -1.7708  -1.7669  -1.7540  -1.7426  -1.7154  -1.7052
    -1.6916  -1.6763  -1.6690  -1.6490  -1.6342  -1.6243  -1.6106  -1.5987
    -1.5771  -1.5692  -1.5476  -1.5282  -1.5208  -1.5049  -1.4859  -1.4759
    -1.4699  -1.4479  -1.4342  -1.4156  -1.4077  -1.3967  -1.3889  -1.3651
    -1.3590  -1.3465  -1.3359  -1.3304  -1.3273  -1.3174  -1.3122  -1.2933
    -1.2881  -1.2812  -1.2735  -1.2650  -1.2541  -1.2496  -1.2341  -1.2321
    -1.2140  -1.2052  -1.1967  -1.1744  -1.1496  -1.1020  -1.0731  -1.0351
    -0.9414  -0.8378  -0.7820  -0.7621  -0.6280  -0.5200  -0.4514  -0.3801
    -0.2353  -0.2090   0.1090   0.3415   0.4465   0.5054   0.6644   0.7619
     1.0216   1.3068   1.3755   1.4232   1.6749   1.7841   1.9582

          k = 0.0320 0.0392 0.0000 ( 36036 PWs)   bands (ev):

   -17.3246 -11.4286  -7.7418  -6.7188  -6.6382  -6.5901  -6.5617  -6.5205
    -6.4771  -6.4460  -5.9528  -5.5376  -5.2100  -5.0062  -4.8673  -4.7498
    -4.6676  -4.5110  -4.4023  -4.2581  -4.2245  -4.1858  -4.1605  -4.1443
    -4.1061  -4.0510  -3.9229  -3.9011  -3.8368  -3.7768  -3.7203  -3.7047
    -3.6824  -3.6410  -3.6186  -3.5971  -3.5743  -3.5573  -3.5441  -3.4972
    -3.4789  -3.4545  -3.4146  -3.3610  -3.3516  -3.3235  -3.2842  -3.2775
    -3.2441  -3.2318  -3.1960  -3.1732  -3.1544  -3.1265  -3.1189  -3.0888
    -3.0577  -3.0303  -3.0054  -2.9794  -2.9512  -2.9333  -2.9177  -2.9072
    -2.8995  -2.8792  -2.8454  -2.8062  -2.7819  -2.7592  -2.7370  -2.7187
    -2.6980  -2.6880  -2.6691  -2.6548  -2.6490  -2.6266  -2.6135  -2.6071
    -2.5859  -2.5646  -2.5438  -2.5307  -2.5068  -2.4943  -2.4842  -2.4789
    -2.4645  -2.4598  -2.4489  -2.4396  -2.4229  -2.4124  -2.3933  -2.3907
    -2.3784  -2.3734  -2.3625  -2.3502  -2.3341  -2.3150  -2.3009  -2.2837
    -2.2643  -2.2554  -2.2483  -2.2357  -2.2105  -2.1889  -2.1778  -2.1585
    -2.1312  -2.1227  -2.1103  -2.0918  -2.0786  -2.0502  -2.0337  -2.0238
    -2.0008  -1.9926  -1.9822  -1.9582  -1.9427  -1.9362  -1.9122  -1.8993
    -1.8909  -1.8775  -1.8700  -1.8547  -1.8490  -1.8359  -1.8198  -1.8053
    -1.7875  -1.7783  -1.7704  -1.7569  -1.7352  -1.7186  -1.7074  -1.7027
    -1.6826  -1.6725  -1.6612  -1.6456  -1.6414  -1.6325  -1.6134  -1.6048
    -1.5868  -1.5690  -1.5521  -1.5370  -1.5333  -1.5068  -1.4995  -1.4769
    -1.4721  -1.4626  -1.4420  -1.4343  -1.4240  -1.4008  -1.3937  -1.3891
    -1.3720  -1.3635  -1.3454  -1.3308  -1.3230  -1.3143  -1.2999  -1.2943
    -1.2744  -1.2681  -1.2551  -1.2520  -1.2441  -1.2350  -1.2302  -1.2187
    -1.2066  -1.1980  -1.1805  -1.1697  -1.1591  -1.1421  -1.0963  -1.0686
    -1.0561  -0.9943  -0.8945  -0.8566  -0.8224  -0.6769  -0.6311  -0.3984
    -0.3306  -0.1177  -0.0213   0.0310   0.2651   0.5677   0.7173   0.9063
     1.0088   1.1766   1.3108   1.4106   1.6070   1.9540   2.2216

          k = 0.0320-0.0784 0.0000 ( 35966 PWs)   bands (ev):

   -17.3245 -11.4277  -7.0696  -7.0565  -6.6668  -6.5970  -6.5548  -6.5194
    -6.4877  -5.9862  -5.9374  -5.9128  -5.8602  -5.0922  -4.9755  -4.6945
    -4.6657  -4.5923  -4.5063  -4.4725  -4.4536  -4.2566  -4.1695  -4.1251
    -4.1021  -4.0427  -3.9833  -3.8933  -3.8109  -3.7417  -3.6962  -3.6797
    -3.6659  -3.6184  -3.6016  -3.5780  -3.5513  -3.5113  -3.4667  -3.4503
    -3.4460  -3.4294  -3.4135  -3.4013  -3.3880  -3.3652  -3.3410  -3.3187
    -3.2694  -3.2197  -3.1739  -3.1489  -3.1270  -3.1072  -3.0820  -3.0671
[...]

   -17.4244 -11.4912  -7.9380  -6.8164  -6.7546  -6.6087  -6.5852  -6.5510
    -6.5192  -6.5014  -5.6634  -5.2529  -4.8523  -4.8101  -4.7881  -4.7195
    -4.6097  -4.4203  -4.2076  -4.1747  -4.1220  -4.0929  -4.0517  -4.0171
    -4.0051  -3.9900  -3.8863  -3.8760  -3.7579  -3.7139  -3.6950  -3.6870
    -3.6637  -3.6516  -3.6262  -3.6162  -3.6051  -3.5929  -3.5830  -3.5433
    -3.5067  -3.4653  -3.4511  -3.4218  -3.3880  -3.3466  -3.3142  -3.2917
    -3.2665  -3.2490  -3.1874  -3.1547  -3.1290  -3.0729  -3.0511  -3.0203
    -2.9885  -2.9610  -2.9469  -2.8897  -2.8777  -2.8690  -2.8634  -2.8535
    -2.8436  -2.8306  -2.8173  -2.8083  -2.7878  -2.7677  -2.7474  -2.7337
    -2.6977  -2.6710  -2.6664  -2.6493  -2.6328  -2.6176  -2.6001  -2.5847
    -2.5536  -2.5483  -2.5418  -2.5299  -2.5091  -2.4840  -2.4703  -2.4630
    -2.4460  -2.4312  -2.4192  -2.4143  -2.4010  -2.3889  -2.3807  -2.3682
    -2.3538  -2.3328  -2.3221  -2.3116  -2.2967  -2.2853  -2.2647  -2.2465
    -2.2372  -2.2204  -2.2075  -2.1951  -2.1866  -2.1786  -2.1643  -2.1538
    -2.1293  -2.1165  -2.0983  -2.0878  -2.0731  -2.0492  -2.0428  -2.0189
    -2.0042  -1.9899  -1.9851  -1.9711  -1.9677  -1.9330  -1.9219  -1.9019
    -1.8986  -1.8772  -1.8629  -1.8443  -1.8380  -1.8244  -1.8021  -1.7886
    -1.7762  -1.7673  -1.7416  -1.7365  -1.7268  -1.7077  -1.6827  -1.6772
    -1.6581  -1.6478  -1.6385  -1.6166  -1.6008  -1.5950  -1.5863  -1.5659
    -1.5463  -1.5381  -1.5193  -1.5012  -1.4908  -1.4750  -1.4576  -1.4439
    -1.4395  -1.4171  -1.4050  -1.3850  -1.3769  -1.3683  -1.3597  -1.3358
    -1.3302  -1.3202  -1.3042  -1.3010  -1.2971  -1.2889  -1.2816  -1.2697
    -1.2624  -1.2516  -1.2456  -1.2380  -1.2254  -1.2230  -1.2026  -1.2020
    -1.1844  -1.1757  -1.1661  -1.1445  -1.1175  -1.0684  -1.0431  -1.0111
    -0.9180  -0.8069  -0.7504  -0.7280  -0.6003  -0.4958  -0.4290  -0.3579
    -0.2076  -0.1777   0.1472   0.3741   0.4698   0.5436   0.6791   0.7816
     1.0561   1.3389   1.4120   1.4530   1.7062   1.8126   1.9839

          k = 0.0320 0.0392 0.0000 ( 36036 PWs)   bands (ev):

   -17.4243 -11.4903  -7.7017  -6.7016  -6.6262  -6.5934  -6.5666  -6.5310
    -6.4794  -6.4267  -5.9142  -5.5133  -5.1795  -4.9682  -4.8361  -4.8146
    -4.6538  -4.6172  -4.4414  -4.2493  -4.1904  -4.1555  -4.1243  -4.1116
    -4.0736  -4.0191  -3.9090  -3.8647  -3.8257  -3.7695  -3.6895  -3.6739
    -3.6506  -3.6135  -3.5912  -3.5773  -3.5399  -3.5254  -3.5088  -3.4687
    -3.4458  -3.4217  -3.3911  -3.3389  -3.3232  -3.3002  -3.2646  -3.2476
    -3.2135  -3.1947  -3.1623  -3.1381  -3.1297  -3.1111  -3.0855  -3.0542
    -3.0334  -3.0039  -2.9777  -2.9437  -2.9193  -2.8991  -2.8893  -2.8736
    -2.8692  -2.8484  -2.8083  -2.7759  -2.7555  -2.7231  -2.7065  -2.6902
    -2.6691  -2.6542  -2.6383  -2.6232  -2.6160  -2.5934  -2.5839  -2.5747
    -2.5518  -2.5297  -2.5144  -2.4989  -2.4878  -2.4644  -2.4528  -2.4499
    -2.4312  -2.4248  -2.4164  -2.4079  -2.3933  -2.3844  -2.3669  -2.3571
    -2.3464  -2.3409  -2.3314  -2.3208  -2.3000  -2.2837  -2.2683  -2.2531
    -2.2324  -2.2234  -2.2184  -2.2023  -2.1799  -2.1557  -2.1456  -2.1335
    -2.1054  -2.0929  -2.0791  -2.0646  -2.0455  -2.0199  -2.0035  -1.9938
    -1.9699  -1.9614  -1.9496  -1.9266  -1.9140  -1.9053  -1.8855  -1.8688
    -1.8635  -1.8483  -1.8386  -1.8263  -1.8182  -1.8030  -1.7929  -1.7745
    -1.7582  -1.7499  -1.7402  -1.7245  -1.7027  -1.6895  -1.6794  -1.6699
    -1.6509  -1.6417  -1.6313  -1.6150  -1.6070  -1.6028  -1.5833  -1.5805
    -1.5602  -1.5405  -1.5224  -1.5077  -1.4997  -1.4770  -1.4697  -1.4481
    -1.4391  -1.4341  -1.4129  -1.4040  -1.3931  -1.3730  -1.3636  -1.3580
    -1.3430  -1.3331  -1.3182  -1.3028  -1.2956  -1.2869  -1.2700  -1.2634
    -1.2463  -1.2422  -1.2266  -1.2231  -1.2182  -1.2064  -1.2002  -1.1882
    -1.1789  -1.1660  -1.1515  -1.1382  -1.1307  -1.1155  -1.0672  -1.0407
    -1.0267  -0.9687  -0.8685  -0.8208  -0.7943  -0.6461  -0.5854  -0.3717
    -0.2986  -0.0992   0.0065   0.0612   0.2961   0.6082   0.7493   0.9198
     1.0294   1.2167   1.3465   1.4381   1.6518   1.9786   2.2429

          k = 0.0320-0.0784 0.0000 ( 35966 PWs)   bands (ev):

   -17.4241 -11.4894  -7.0304  -7.0199  -6.6575  -6.6047  -6.5650  -6.5360
    -6.5031  -5.9550  -5.9033  -5.8747  -5.8235  -5.0867  -4.9404  -4.7349
    -4.6699  -4.6369  -4.5803  -4.4375  -4.4152  -4.2597  -4.1315  -4.0927
    -4.0694  -4.0333  -3.9675  -3.8753  -3.7864  -3.7217  -3.6710  -3.6479
    -3.6377  -3.5920  -3.5731  -3.5438  -3.5168  -3.4841  -3.4480  -3.4170
    -3.4129  -3.4020  -3.3798  -3.3694  -3.3540  -3.3295  -3.3113  -3.2989
    -3.2452  -3.1869  -3.1633  -3.1172  -3.0926  -3.0757  -3.0541  -3.0362
    -3.0058  -2.9956  -2.9877  -2.9565  -2.9355  -2.9205  -2.8954  -2.8667
    -2.8420  -2.8241  -2.8010  -2.7581  -2.7490  -2.7348  -2.6991  -2.6882
    -2.6613  -2.6513  -2.6386  -2.6033  -2.5823  -2.5582  -2.5457  -2.5322
    -2.5280  -2.5172  -2.5106  -2.4938  -2.4723  -2.4554  -2.4414  -2.4312
    -2.4209  -2.4126  -2.3948  -2.3904  -2.3746  -2.3691  -2.3544  -2.3314
    -2.3160  -2.3067  -2.2977  -2.2917  -2.2827  -2.2731  -2.2691  -2.2577
    -2.2471  -2.2313  -2.2201  -2.2044  -2.1803  -2.1701  -2.1485  -2.1346
    -2.1128  -2.0827  -2.0693  -2.0532  -2.0360  -2.0139  -2.0050  -1.9933
    -1.9776  -1.9720  -1.9522  -1.9503  -1.9310  -1.9260  -1.9025  -1.8928
    -1.8758  -1.8604  -1.8362  -1.8201  -1.8056  -1.7931  -1.7666  -1.7564
    -1.7469  -1.7305  -1.7170  -1.7116  -1.6918  -1.6793  -1.6576  -1.6457
    -1.6372  -1.6286  -1.6209  -1.6134  -1.5978  -1.5806  -1.5562  -1.5453
    -1.5205  -1.5140  -1.4966  -1.4824  -1.4606  -1.4499  -1.4387  -1.4343
    -1.4256  -1.4145  -1.3958  -1.3891  -1.3832  -1.3610  -1.3517  -1.3319
    -1.3241  -1.3167  -1.3096  -1.2980  -1.2928  -1.2806  -1.2733  -1.2602
    -1.2561  -1.2424  -1.2371  -1.2260  -1.2172  -1.2041  -1.1960  -1.1787
    -1.1729  -1.1645  -1.1556  -1.1488  -1.1397  -1.1166  -1.1065  -1.0818
    -1.0719  -1.0575  -1.0254  -0.9223  -0.8679  -0.7400  -0.6980  -0.6158
    -0.4571  -0.4107  -0.2129   0.0144   0.1185   0.4089   0.8010   0.9210
     1.0959   1.2683   1.4616   1.6940   2.2809   2.4184   2.5579

          k = 0.0320-0.0392 0.0000 ( 36036 PWs)   bands (ev):

   -17.4243 -11.4903  -7.7030  -6.7147  -6.6175  -6.5959  -6.5592  -6.5297
    -6.4711  -6.4292  -5.9166  -5.5024  -5.2074  -4.9625  -4.8457  -4.8058
    -4.6460  -4.6179  -4.4425  -4.2310  -4.1835  -4.1489  -4.1239  -4.1164
    -4.0874  -4.0215  -3.9498  -3.8516  -3.8166  -3.7523  -3.7011  -3.6649
    -3.6485  -3.6299  -3.5901  -3.5653  -3.5428  -3.5339  -3.5044  -3.4890
    -3.4344  -3.4098  -3.3960  -3.3594  -3.3308  -3.3004  -3.2589  -3.2312
    -3.2147  -3.1791  -3.1609  -3.1520  -3.1372  -3.1070  -3.0804  -3.0556
    -3.0370  -2.9896  -2.9762  -2.9520  -2.9208  -2.9091  -2.8860  -2.8773
    -2.8643  -2.8284  -2.8090  -2.7845  -2.7537  -2.7347  -2.7014  -2.6977
    -2.6694  -2.6657  -2.6410  -2.6269  -2.6147  -2.5895  -2.5824  -2.5641
    -2.5542  -2.5338  -2.5192  -2.5005  -2.4928  -2.4668  -2.4560  -2.4447
    -2.4353  -2.4259  -2.4122  -2.3972  -2.3833  -2.3741  -2.3593  -2.3541
    -2.3506  -2.3369  -2.3228  -2.3150  -2.3061  -2.2842  -2.2670  -2.2506
    -2.2379  -2.2191  -2.2028  -2.1932  -2.1775  -2.1703  -2.1451  -2.1314
    -2.1080  -2.0955  -2.0794  -2.0594  -2.0352  -2.0226  -2.0134  -2.0026
    -1.9698  -1.9666  -1.9524  -1.9316  -1.9228  -1.9059  -1.8982  -1.8755
    -1.8584  -1.8541  -1.8369  -1.8285  -1.8184  -1.8125  -1.7859  -1.7732
    -1.7652  -1.7439  -1.7254  -1.7236  -1.7068  -1.6957  -1.6855  -1.6622
    -1.6511  -1.6402  -1.6371  -1.6179  -1.6070  -1.5961  -1.5784  -1.5664
    -1.5508  -1.5445  -1.5214  -1.5092  -1.5001  -1.4847  -1.4628  -1.4483
    -1.4357  -1.4259  -1.4162  -1.4119  -1.3941  -1.3782  -1.3677  -1.3588
    -1.3449  -1.3308  -1.3240  -1.3130  -1.2906  -1.2863  -1.2715  -1.2566
    -1.2461  -1.2432  -1.2247  -1.2222  -1.2127  -1.2083  -1.2002  -1.1947
    -1.1762  -1.1656  -1.1601  -1.1449  -1.1344  -1.1223  -1.0623  -1.0317
    -1.0057  -0.9615  -0.8827  -0.8363  -0.7691  -0.6371  -0.5434  -0.3981
    -0.2991  -0.1004  -0.0228   0.0846   0.3055   0.6037   0.7178   0.9122
     1.0366   1.2173   1.3517   1.4178   1.6729   1.9817   2.2215

          k =-0.0640 0.0000 0.0000 ( 36024 PWs)   bands (ev):

   -17.4243 -11.4915  -7.4923  -7.4523  -6.6838  -6.5971  -6.5648  -6.5362
    -6.5064  -6.3716  -6.2200  -5.0564  -4.8194  -4.6871  -4.6110  -4.5181
    -4.4892  -4.4773  -4.4652  -4.1210  -4.0252  -4.0184  -4.0031  -3.9904
    -3.9662  -3.9122  -3.8531  -3.8358  -3.7952  -3.7949  -3.7748  -3.7182
    -3.6957  -3.6684  -3.6552  -3.6335  -3.5895  -3.5891  -3.5704  -3.5427
    -3.5054  -3.4923  -3.4824  -3.4519  -3.4275  -3.3533  -3.3123  -3.3051
    -3.2925  -3.2188  -3.1984  -3.1593  -3.1231  -3.0692  -3.0274  -3.0095
    -2.9803  -2.9604  -2.9401  -2.9246  -2.8957  -2.8822  -2.8746  -2.8632
    -2.8501  -2.8322  -2.8182  -2.8061  -2.7951  -2.7900  -2.7731  -2.7434
    -2.7249  -2.7103  -2.6836  -2.6591  -2.6549  -2.6402  -2.6301  -2.6120
    -2.5997  -2.5884  -2.5475  -2.5200  -2.5160  -2.5071  -2.4912  -2.4808
    -2.4708  -2.4679  -2.4541  -2.4233  -2.4074  -2.4070  -2.3889  -2.3651
    -2.3500  -2.3374  -2.3227  -2.3108  -2.2990  -2.2886  -2.2603  -2.2340
    -2.2284  -2.2141  -2.2073  -2.1854  -2.1736  -2.1619  -2.1371  -2.1281
    -2.1124  -2.1009  -2.0985  -2.0755  -2.0689  -2.0556  -2.0482  -2.0412
    -2.0410  -2.0260  -2.0000  -1.9930  -1.9834  -1.9502  -1.9358  -1.9275
    -1.9077  -1.8996  -1.8739  -1.8695  -1.8587  -1.8544  -1.8463  -1.8129
    -1.7931  -1.7702  -1.7476  -1.7304  -1.7186  -1.7098  -1.6819  -1.6714
    -1.6638  -1.6434  -1.6313  -1.6249  -1.6202  -1.6007  -1.5919  -1.5746
    -1.5673  -1.5392  -1.5349  -1.5207  -1.4976  -1.4857  -1.4808  -1.4733
    -1.4576  -1.4444  -1.4271  -1.3965  -1.3784  -1.3665  -1.3518  -1.3407
    -1.3299  -1.3219  -1.3154  -1.3015  -1.2944  -1.2809  -1.2685  -1.2599
    -1.2520  -1.2487  -1.2422  -1.2228  -1.2031  -1.1946  -1.1746  -1.1712
    -1.1586  -1.1339  -1.1295  -1.1062  -1.0802  -0.9993  -0.9447  -0.8526
    -0.7941  -0.7532  -0.6675  -0.6157  -0.5089  -0.4458  -0.1886  -0.1199
    -0.0982   0.0039   0.1808   0.1871   0.2892   0.4041   0.7424   0.8297
     1.0778   1.2024   1.3189   1.4027   1.5967   1.9170   1.9828

          k =-0.0640 0.0392 0.0000 ( 36040 PWs)   bands (ev):

   -17.4242 -11.4907  -7.2655  -7.2256  -6.6652  -6.5983  -6.5617  -6.5383
    -6.5083  -6.1803  -6.0376  -5.5375  -5.5114  -5.0236  -4.7969  -4.6816
    -4.6280  -4.5135  -4.4880  -4.1906  -4.1365  -4.1107  -3.9929  -3.9747
    -3.9678  -3.9384  -3.9158  -3.8852  -3.8446  -3.8030  -3.7773  -3.7690
    -3.6880  -3.6486  -3.6170  -3.5937  -3.5683  -3.5430  -3.5145  -3.4807
    -3.4685  -3.4335  -3.4176  -3.3837  -3.3445  -3.2937  -3.2661  -3.2024
    -3.1860  -3.1598  -3.1536  -3.1457  -3.1021  -3.0853  -3.0665  -3.0515
    -3.0415  -3.0052  -2.9877  -2.9546  -2.9315  -2.8994  -2.8766  -2.8638
    -2.8415  -2.8340  -2.8128  -2.8031  -2.7891  -2.7651  -2.7512  -2.7266
    -2.6913  -2.6828  -2.6727  -2.6592  -2.6422  -2.6331  -2.6197  -2.5846
    -2.5700  -2.5623  -2.5243  -2.4944  -2.4846  -2.4779  -2.4667  -2.4536
    -2.4365  -2.4293  -2.4201  -2.4146  -2.4095  -2.3895  -2.3757  -2.3548
    -2.3335  -2.3217  -2.3092  -2.2891  -2.2831  -2.2799  -2.2607  -2.2528
    -2.2397  -2.2152  -2.2113  -2.1949  -2.1812  -2.1765  -2.1498  -2.1361
    -2.1287  -2.1018  -2.0852  -2.0680  -2.0603  -2.0397  -2.0331  -2.0119
    -1.9932  -1.9868  -1.9686  -1.9523  -1.9332  -1.9099  -1.8943  -1.8886
    -1.8776  -1.8600  -1.8467  -1.8318  -1.8264  -1.8207  -1.8163  -1.8051
    -1.7943  -1.7687  -1.7641  -1.7431  -1.7335  -1.7206  -1.7045  -1.6938
    -1.6828  -1.6482  -1.6389  -1.6132  -1.5986  -1.5908  -1.5727  -1.5643
    -1.5399  -1.5306  -1.5202  -1.5072  -1.5022  -1.4852  -1.4790  -1.4676
    -1.4457  -1.4222  -1.4183  -1.4061  -1.3903  -1.3815  -1.3663  -1.3590
    -1.3368  -1.3325  -1.3171  -1.2992  -1.2876  -1.2758  -1.2560  -1.2416
    -1.2367  -1.2302  -1.2093  -1.2015  -1.1962  -1.1882  -1.1731  -1.1630
    -1.1586  -1.1470  -1.1316  -1.1250  -1.1208  -1.1150  -1.0915  -1.0097
    -0.9654  -0.9590  -0.8637  -0.7482  -0.6101  -0.5484  -0.1452  -0.0575
     0.1631   0.2058   0.2838   0.3760   0.5301   0.5715   0.6804   0.7508
     1.2638   1.3727   1.4357   1.4518   1.6368   1.6439   1.7300

          k =-0.0640-0.0784 0.0000 ( 36100 PWs)   bands (ev):

   -17.4241 -11.4899  -6.7451  -6.6531  -6.6368  -6.6038  -6.5738  -6.5464
    -6.4777  -6.4619  -6.4428  -5.6431  -5.5197  -5.4906  -5.4132  -4.7622
    -4.6466  -4.4801  -4.3404  -4.3131  -4.2667  -4.2277  -4.2108  -4.0391
    -3.9190  -3.8895  -3.8839  -3.8555  -3.8288  -3.8119  -3.8005  -3.7964
    -3.7098  -3.6638  -3.6248  -3.5592  -3.5344  -3.4898  -3.4614  -3.4427
    -3.4140  -3.4016  -3.3642  -3.3488  -3.3362  -3.3030  -3.2853  -3.2748
    -3.2506  -3.2033  -3.1715  -3.1549  -3.1100  -3.0372  -3.0194  -2.9879
    -2.9522  -2.9404  -2.9327  -2.9210  -2.9149  -2.9051  -2.8994  -2.8872
    -2.8827  -2.8754  -2.8697  -2.8545  -2.7904  -2.7495  -2.7343  -2.7130
    -2.6791  -2.6374  -2.6224  -2.6047  -2.5965  -2.5847  -2.5606  -2.5507
    -2.5300  -2.5114  -2.5086  -2.4905  -2.4768  -2.4583  -2.4337  -2.4315
    -2.4285  -2.4195  -2.4022  -2.3963  -2.3907  -2.3768  -2.3545  -2.3165
    -2.3089  -2.2968  -2.2803  -2.2758  -2.2681  -2.2591  -2.2491  -2.2352
    -2.2333  -2.2210  -2.2144  -2.2007  -2.1863  -2.1803  -2.1679  -2.1569
    -2.1387  -2.1271  -2.1211  -2.1078  -2.0974  -2.0526  -2.0419  -2.0278
    -2.0050  -1.9935  -1.9894  -1.9823  -1.9582  -1.9522  -1.9352  -1.9054
    -1.9002  -1.8842  -1.8761  -1.8594  -1.8506  -1.8339  -1.8234  -1.7842
    -1.7684  -1.7360  -1.7139  -1.7056  -1.6895  -1.6763  -1.6662  -1.6478
    -1.6328  -1.6231  -1.5832  -1.5716  -1.5631  -1.5550  -1.5410  -1.5330
    -1.5185  -1.5086  -1.4914  -1.4851  -1.4714  -1.4418  -1.4360  -1.4328
    -1.4302  -1.4142  -1.4108  -1.3764  -1.3612  -1.3526  -1.3466  -1.3368
    -1.3283  -1.3236  -1.3058  -1.2949  -1.2789  -1.2681  -1.2543  -1.2478
    -1.2463  -1.2401  -1.2217  -1.2161  -1.2005  -1.1945  -1.1801  -1.1699
    -1.1490  -1.1381  -1.1289  -1.1170  -1.1045  -1.0957  -1.0881  -1.0767
    -1.0573  -1.0290  -0.9974  -0.9749  -0.8172  -0.6602  -0.4450  -0.2726
     0.1259   0.1678   0.3728   0.4290   0.5356   0.5726   0.8083   0.8924
     0.9738   1.0214   1.4922   1.6797   1.7746   1.8489   1.9085

     the Fermi energy is     0.4343 ev

!    total energy              =   -4330.07663543 Ry
     Harris-Foulkes estimate   =   -4330.07665647 Ry
     estimated scf accuracy    <       0.00000683 Ry

     The total energy is the sum of the following terms:

     one-electron contribution =  -48523.11358592 Ry
     hartree contribution      =   24689.92367838 Ry
     xc contribution           =   -1494.62080942 Ry
     ewald contribution        =   20997.73426704 Ry
     electric field correction =       0.00010729 Ry
     smearing contrib. (-TS)   =      -0.00029280 Ry

     convergence has been achieved in   5 iterations

     Forces acting on atoms (Ry/au):


     negative rho (up, down):  3.620E-03 0.000E+00
     atom    1 type  1   force =    -0.00098854    0.00297846    0.00051036
     atom    2 type  2   force =    -0.00117203    0.00095132    0.00127058
     atom    3 type  2   force =     0.00044462   -0.00023936    0.00155992
     atom    4 type  2   force =    -0.00061470   -0.00318622    0.00183748
     atom    5 type  2   force =    -0.00008097    0.00066820    0.00150610
     atom    6 type  2   force =    -0.00077627    0.00072935    0.00226788
     atom    7 type  2   force =    -0.00020436    0.00063765    0.00158270
     atom    8 type  2   force =    -0.00047771    0.00041459    0.00123151
     atom    9 type  2   force =    -0.00013250    0.00060931    0.00103330
     atom   10 type  2   force =    -0.00031636    0.00041643    0.00027356
     atom   11 type  2   force =    -0.00080859    0.00029253    0.00109279
     atom   12 type  2   force =     0.00014128    0.00027491    0.00083357
     atom   13 type  2   force =    -0.00012343    0.00040089    0.00127138
     atom   14 type  2   force =    -0.00035443    0.00021001    0.00080237
     atom   15 type  2   force =     0.00017349   -0.00000014    0.00073097
     atom   16 type  2   force =    -0.00017487    0.00020840   -0.00006000
     atom   17 type  2   force =    -0.00022264    0.00021481   -0.00010141
     atom   18 type  2   force =     0.00007522   -0.00008639   -0.00001079
     atom   19 type  2   force =     0.00094970    0.00125993    0.00125043
     atom   20 type  2   force =     0.00158478    0.00102098    0.00141858
     atom   21 type  2   force =     0.00139882    0.00192263    0.00014593
     atom   22 type  2   force =     0.00013690    0.00238228   -0.00119267
     atom   23 type  2   force =    -0.00136469    0.00401414   -0.00031477
     atom   24 type  2   force =     0.00191854    0.00355608   -0.00123001
     atom   25 type  2   force =     0.00043630   -0.00439629   -0.00794558
     atom   26 type  2   force =     0.00027091   -0.00381533   -0.00872975
     atom   27 type  2   force =     0.00060340   -0.00364978   -0.00905950
     atom   28 type  2   force =    -0.00051860   -0.00255615   -0.00957946
     atom   29 type  2   force =    -0.00074442   -0.00260237   -0.00666962
     atom   30 type  2   force =     0.00069548   -0.00224656   -0.00614460
     atom   31 type  2   force =     0.00036456   -0.00124291    0.00006600
     atom   32 type  2   force =    -0.00040935   -0.00164869    0.00056264
     atom   33 type  2   force =     0.00021399   -0.00271424    0.00019126
     atom   34 type  2   force =     0.00051894    0.00347135    0.01247061
     atom   35 type  2   force =     0.00067521    0.00458167    0.01110726
     atom   36 type  2   force =    -0.00123324    0.00413593    0.01071618
     atom   37 type  3   force =    -0.00171194   -0.00424436   -0.00005417
     atom   38 type  4   force =    -0.00061016   -0.00314367   -0.00238769
     atom   39 type  5   force =     0.00078946   -0.00018797   -0.00356123
     atom   40 type  5   force =     0.00215422    0.00031008    0.00112436
     atom   41 type  5   force =    -0.00050602    0.00029849    0.00018350

     Total force =     0.032995     Total SCF correction =     0.011770
     SCF correction compared to forces is large: reduce conv_thr to get better values
 !ASE
     Check: negative starting charge=   -0.003229
     NEW-OLD atomic charge density approx. for the potential

     Check: negative/imaginary core charge=   -0.000012    0.000000
     Check: negative starting charge=   -0.003228

     negative rho (up, down):  3.615E-03 0.000E+00
 
     Adding external electric field

     Computed dipole along edir(3) : 
        Dipole               -0.2860 Ry au,         -0.7269 Debye
        Dipole field         -0.0004 Ry au
 
        Potential amp.        0.0394 Ry
        Total length         52.5607 bohr
 

     total cpu time spent up to now is    53634.3 secs

     per-process dynamical memory:   384.6 Mb

     Self-consistent Calculation

     iteration #  1     ecut=    36.75 Ry     beta=0.10
     Davidson diagonalization with overlap
     ethr =  2.34E-09,  avg # of iterations =  7.5

     negative rho (up, down):  3.628E-03 0.000E+00
 
     Adding external electric field

     Computed dipole along edir(3) : 
        Dipole               -0.2860 Ry au,         -0.7269 Debye
        Dipole field         -0.0004 Ry au
 
        Potential amp.        0.0394 Ry
        Total length         52.5607 bohr
 

     total cpu time spent up to now is    54067.1 secs

     total energy              =   -4330.07678611 Ry
     Harris-Foulkes estimate   =   -4330.07679523 Ry
     estimated scf accuracy    <       0.00048785 Ry

     iteration #  2     ecut=    36.75 Ry     beta=0.10
     Davidson diagonalization with overlap
